(written by ASE)

2047 atoms
1 atom types

0.0                   28.16  xlo xhi
0.0                   28.16  ylo yhi
0.0                   28.16  zlo zhi

Masses

     1      58.693399984901454 # Ni

Atoms # atomic

     1   1      1.7437872881556622     -1.7454802912393881  -0.0023999457428545428
     2   1      1.7437872881556622     0.01451970876113351      1.7576000542575674
     3   1       3.503787288155662     -1.7454802912393879      1.7576000542571515
     4   1       3.503787288155662    0.014519708760653449  -0.0023999457428551044
     5   1      1.7437872881556622     -1.7454802912393879      3.5176000542575996
     6   1      1.7437872881579302    0.014519708758323535      5.2776000542575376
     7   1       3.503787288155662     -1.7454802912393879      5.2776000542574231
     8   1      3.5037872881556669    0.014519708761271843       3.517600054257596
     9   1      1.7437872881556951     -1.7454802912393883      7.0376000542577248
    10   1      1.7437872881987615    0.014519708717442237      8.7976000542480204
    11   1      3.5037872881556629     -1.7454802912393885      8.7976000542574582
    12   1      3.5037872881557011     0.01451970876047004      7.0376000542577142
    13   1      1.7437872881593577     -1.7454802912393885      10.557600054256826
    14   1      1.7437872882274732    0.014519708688699673      12.317600054257102
    15   1      3.5037872881556638     -1.7454802912393881      12.317600054257102
    16   1      3.5037872881557575    0.014519708756644212       10.55760005425682
    17   1      1.7437872881593577     -1.7454802912393885      14.077600054257379
    18   1      1.7437872881987613    0.014519708717442459      15.837600054266183
    19   1      3.5037872881556633     -1.7454802912393885      15.837600054256747
    20   1      3.5037872881557575    0.014519708756644212      14.077600054257386
    21   1      1.7437872881556951     -1.7454802912393885      17.597600054256482
    22   1      1.7437872881579304    0.014519708758323313      19.357600054256665
    23   1      3.5037872881556624     -1.7454802912393879      19.357600054256782
    24   1      3.5037872881557011    0.014519708760470262      17.597600054256493
    25   1      1.7437872881556622     -1.7454802912393881      21.117600054256606
    26   1      1.7437872881556622     0.01451970876113351      22.877600054256636
    27   1       3.503787288155662     -1.7454802912393879      22.877600054257051
    28   1      3.5037872881556669    0.014519708761271843      21.117600054256609
    29   1      1.7437872881556622     -1.7454802912393881       24.63760005425706
    30   1      1.7437872881556622    0.014519708760653449      26.397600054257101
    31   1       3.503787288155662     -1.7454802912393879      26.397600054257101
    32   1       3.503787288155662    0.014519708760653449       24.63760005425706
    33   1      1.7437872881556622      1.7745197087610762  -0.0023999457423746328
    34   1      1.7437872881584306       3.534519708760457      1.7576000542552914
    35   1      3.5037872881556713      1.7745197087613449      1.7576000542578361
    36   1      3.5037872881556664      3.5345197087611053  -0.0023999457422364443
    37   1      1.7437872881584304      1.7745197087588003      3.5176000542569477
    38   1      1.7437872881556622      3.5345197090195875      5.2776000544215576
    39   1      3.5037872881564649      1.7745197087590521      5.2776000542588566
    40   1      3.5037872881571905      3.5345197087619278       3.517600054258418
    41   1      1.7437872881556622       1.774519708927802      7.0376000543154555
    42   1      1.7437872881556622      3.5345197128401065      8.7976000552124844
    43   1      3.5037872881590264      1.7745197087047409      8.7976000542466917
    44   1      3.5037872882223988      3.5345197088609384      7.0376000543008246
    45   1      1.7437872881556622      1.7745197095549359      10.557600054279183
    46   1      1.7437872881556622      3.5345197181904204      12.317600054257102
    47   1       3.503787288160269      1.7745197086587225      12.317600054257102
    48   1      3.5037872881963326      3.5345197087604694      10.557600054234198
    49   1      1.7437872881556622      1.7745197095549359      14.077600054235022
    50   1      1.7437872881556622      3.5345197128401065      15.837600053301722
    51   1      3.5037872881589984      1.7745197087047129      15.837600054267513
    52   1      3.5037872881694851      3.5345197087349423      14.077600054278687
    53   1      1.7437872881556622      1.7745197089278011       17.59760005419875
    54   1      1.7437872881556622      3.5345197090195875      19.357600054092647
    55   1      3.5037872881564649      1.7745197087590521      19.357600054255347
    56   1      3.5037872881914156      3.5345197088312759      17.597600054214702
    57   1      1.7437872881584306      1.7745197087588007       21.11760005425726
    58   1      1.7437872881584309       3.534519708760457      22.877600054258913
    59   1      3.5037872881556713      1.7745197087613449      22.877600054256366
    60   1      3.5037872881571905      3.5345197087619278      21.117600054255789
    61   1      1.7437872881556622      1.7745197087610762      24.637600054256581
    62   1      1.7437872881556622      3.5345197087611089      26.397600054257101
    63   1       3.503787288155662      1.7745197087606606      26.397600054257101
    64   1      3.5037872881556669      3.5345197087611053      24.637600054256442
    65   1      1.7437872881579302      5.2945197087610474  -0.0023999457428978133
    66   1      1.7437872881556622      7.0545197088189653      1.7576000544242922
    67   1      3.5037872881564649      5.2945197087623654      1.7576000542555432
    68   1      3.5037872881557011       7.054519708761223  -0.0023999457428978133
    69   1      1.7437872881556622      5.2945197089250664      3.5176000545160777
    70   1      1.7437872881556622      7.0545197118365834      5.2776000570252579
    71   1      3.5037872909807648      5.2945197101988306      5.2776000556329921
    72   1      3.5037872941559778      7.0545197117715706      3.5176000573237722
    73   1      1.7437872881556622      5.2945197115287668      7.0376000573330728
    74   1      1.7437872881556622      7.0545197216156517      8.7976000711530506
    75   1      3.5037872901475202      5.2945197107787578      8.7976000525578222
    76   1      3.5037873284155232       7.054519719654456      7.0376000588392591
    77   1      1.7437872881556622      5.2945197210373403      10.557600057263674
    78   1      1.7437872881556622      7.0545197162702742      12.317600054257102
    79   1       3.503787283632624      5.2945197083484254      12.317600053105032
    80   1      3.5037872931744216      7.0545197223249652      10.557600048228704
    81   1      1.7437872881556622      5.2945197210373403      14.077600051250531
    82   1      1.7437872881556622      7.0545197216156534      15.837600037361154
    83   1      3.5037872849572413      5.2945197081091244      15.837600055759578
    84   1      3.5037872594641488      7.0545197138951359      14.077600052200895
    85   1      1.7437872881556622      5.2945197115287668      17.597600051181132
    86   1      1.7437872881556622      7.0545197118365834      19.357600051488948
    87   1      3.5037872882206864       5.294519708787627      19.357600054230087
    88   1      3.5037872858409265      7.0545197082934195      17.597600054763546
    89   1      1.7437872881556622      5.2945197089250664      21.117600053998128
    90   1      1.7437872881556622      7.0545197088189653       22.87760005408991
    91   1      3.5037872881564649      5.2945197087623654      22.877600054258661
    92   1       3.503787288191416      7.0545197088030136       21.11760005418644
    93   1      1.7437872881579302      5.2945197087610474      24.637600054259391
    94   1      1.7437872881556957      7.0545197087612337      26.397600054257101
    95   1       3.503787288155662      5.2945197087609319      26.397600054257101
    96   1      3.5037872881557011       7.054519708761223      24.637600054257245
    97   1      1.7437872881987615      8.8145197087515292  -0.0023999457428978133
    98   1      1.7437872881556622      10.574519708782692      1.7576000550514264
    99   1      3.5037872883063104      8.8145197087926785      1.7576000543060386
   100   1      3.5037872881566496      10.574519708760329  -0.0023999457428978133
   101   1      1.7437872881556622      8.8145197097159933      3.5176000583365972
   102   1      1.7437872881556622      10.574519711767183      5.2776000665338314
   103   1      3.5037873708075695      8.8145197252472602       5.277600074269766
   104   1      3.5037873052774704      10.574519710838675      3.5176000626687238
   105   1      1.7437872881556622      8.8145197256565595      7.0376000671121437
   106   1      1.7437872881556622       10.57451973766754      8.7976000906403389
   107   1      3.5037874556204476      8.8145197474969894      8.7976000562571031
   108   1      3.5037876367006211      10.574519733790883      7.0376000883451608
   109   1      1.7437872881556622      8.8145197451438477      10.557600083164031
   110   1      1.7437872881556622      10.574519712630817      12.317600054257102
   111   1      3.5037873053088959      8.8145197420707984      12.317600033880378
   112   1      3.5037875950739741      10.574519746457582      10.557600034059449
   113   1      1.7437872881556622      8.8145197451438477      14.077600025350174
   114   1      1.7437872881556622       10.57451973766754      15.837600017873866
   115   1      3.5037872570170032      8.8145197130245716      15.837600053732826
   116   1      3.5037872366740723      10.574519725736277      14.077600037278609
   117   1      1.7437872881556622      8.8145197256565595       17.59760004140206
   118   1      1.7437872881556622      10.574519711767183      19.357600041980373
   119   1      3.5037872886936299      8.8145197091265342      19.357600053040603
   120   1       3.503787287827441      10.574519711027717      17.597600048965798
   121   1      1.7437872881556622      8.8145197097159933      21.117600050177607
   122   1      1.7437872881556622      10.574519708782692      22.877600053462778
   123   1       3.503787288158998      8.8145197087502005         22.877600054313
   124   1      3.5037872882478003       10.57451970875856      21.117600054223988
   125   1      1.7437872881987615      8.8145197087515292      24.637600054300272
   126   1      1.7437872881593584      10.574519708760334      26.397600054257101
   127   1      3.5037872881556629       8.814519708760967      26.397600054257101
   128   1      3.5037872881557575      10.574519708760329      24.637600054261071
   129   1      1.7437872882274734      12.334519708760611  -0.0023999457428978133
   130   1      1.7437872881556622      14.094519708738531      1.7576000550514266
   131   1      3.5037872884363992      12.334519708760494      1.7576000543465069
   132   1      3.5037872881566479      14.094519708760895  -0.0023999457428978133
   133   1      1.7437872881556622      12.334519708760611      3.5176000636869116
   134   1      1.7437872881556622       14.09451970575404      5.2776000665338305
   135   1      3.5037874346194284      12.334519708670248      5.2776000914920855
   136   1       3.503787305639257      14.094519706865311      3.5176000628495134
   137   1      1.7437872881556622      12.334519708760611      7.0376000617667653
   138   1      1.7437872881556622      14.094519679853683      8.7976000906403389
   139   1       3.503787845406785      12.334519708697083      8.7976000694083041
   140   1      3.5037876363384148      14.094519684252358      7.0376000884995449
   141   1      1.7437872881556622      12.334519708760611      10.557600058127308
   142   1      1.7437872881556622      14.094519704890406      12.317600054257102
   143   1      3.5037873947538793      12.334519709072312      12.317600015797135
   144   1      3.5037875976807502      14.094519672195874       10.55760003451417
   145   1      1.7437872881556622      12.334519708760611      14.077600050386897
   146   1      1.7437872881556622      14.094519679853683      15.837600017873866
   147   1      3.5037872753872756      12.334519709040364      15.837600042315968
   148   1      3.5037872430220252      14.094519692937087      14.077600036850416
   149   1      1.7437872881556622      12.334519708760611      17.597600046747441
   150   1      1.7437872881556622       14.09451970575404      19.357600041980373
   151   1      3.5037872890975348      12.334519708761134      19.357600052081128
   152   1      3.5037872885528931      14.094519706849495      17.597600048604111
   153   1      1.7437872881556622      12.334519708760611      21.117600044827295
   154   1      1.7437872881556622      14.094519708738529      22.877600053462778
   155   1      3.5037872881606793      12.334519708760611      22.877600054358581
   156   1      3.5037872882478114      14.094519708762663      21.117600054223978
   157   1      1.7437872882274732      12.334519708760611      24.637600054329017
   158   1      1.7437872881593584      14.094519708760888      26.397600054257101
   159   1      3.5037872881556638      12.334519708760611      26.397600054257101
   160   1      3.5037872881557575      14.094519708760894      24.637600054261068
   161   1      1.7437872881987617      15.854519708769693  -0.0023999457428978133
   162   1      1.7437872881556622      17.614519708702257      1.7576000544242922
   163   1      3.5037872883099146      15.854519708728663      1.7576000543097607
   164   1      3.5037872881557011          17.61451970876  -0.0023999457428978133
   165   1      1.7437872881556622      15.854519707805231      3.5176000583365967
   166   1      1.7437872881556622      17.614519705684639      5.2776000570252579
   167   1       3.503787373796897      15.854519692585846      5.2776000744005511
   168   1      3.5037872945260817      17.614519705566888       3.517600057511113
   169   1      1.7437872881556622      15.854519691864663      7.0376000671121437
   170   1      1.7437872881556622      17.614519695905571      8.7976000711530506
   171   1      3.5037874620581979      15.854519670855005      8.7976000567120121
   172   1      3.5037873327308438      17.614519697353948      7.0376000590091685
   173   1      1.7437872881556622      15.854519672377375      10.557600083164031
   174   1      1.7437872881556622      17.614519701250948      12.317600054257102
   175   1      3.5037873193715194      15.854519676019667      12.317600033908612
   176   1      3.5037873035666189      17.614519694086511       10.55760004867977
   177   1      1.7437872881556622      15.854519672377375      14.077600025350174
   178   1      1.7437872881556622      17.614519695905567      15.837600037361154
   179   1      3.5037872635495173       15.85451970454633      15.837600053123179
   180   1      3.5037872665918597      17.614519702487176       14.07760005175532
   181   1      1.7437872881556622      15.854519691864663       17.59760004140206
   182   1      1.7437872881556622      17.614519705684639      19.357600051488948
   183   1      3.5037872887021519      15.854519708394168      19.357600053032602
   184   1      3.5037872865596578      17.614519708871814      17.597600054400804
   185   1      1.7437872881556622      15.854519707805231      21.117600050177607
   186   1      1.7437872881556622      17.614519708702257       22.87760005408991
   187   1       3.503787288158998      15.854519708771022         22.877600054313
   188   1       3.503787288191416      17.614519708718209       21.11760005418644
   189   1      1.7437872881987613      15.854519708769693      24.637600054300272
   190   1      1.7437872881556955      17.614519708759989      26.397600054257101
   191   1      3.5037872881556633      15.854519708760257      26.397600054257101
   192   1      3.5037872881557011          17.61451970876      24.637600054257245
   193   1      1.7437872881579302      19.374519708760179  -0.0023999457428978133
   194   1      1.7437872881584306      21.134519708760763      1.7576000542552912
   195   1      3.5037872881564649      19.374519708758857      1.7576000542555434
   196   1      3.5037872881556664      21.134519708760116  -0.0023999457422363476
   197   1      1.7437872881556622      19.374519708596157      3.5176000545160777
   198   1      1.7437872881556622      21.134519708501635      5.2776000544215584
   199   1      3.5037872914200596      19.374519707100873      5.2776000558507672
   200   1      3.5037872881571905      21.134519708759296       3.517600054258418
   201   1      1.7437872881556622      19.374519705992455      7.0376000573330737
   202   1      1.7437872881556622      21.134519704681114      8.7976000552124827
   203   1      3.5037872917440849       19.37451970597532      8.7976000528826717
   204   1       3.503787288236222      21.134519708651084      7.0376000543054502
   205   1      1.7437872881556622      19.374519696483883      10.557600057263674
   206   1      1.7437872881556622      21.134519699330799      12.317600054257102
   207   1      3.5037872854746293      19.374519708291988      12.317600052884494
   208   1      3.5037872882299088      21.134519708738267       10.55760005423604
   209   1      1.7437872881556622      19.374519696483883      14.077600051250533
   210   1      1.7437872881556622      21.134519704681118      15.837600053301722
   211   1      3.5037872856087571      19.374519709082669      15.837600055437493
   212   1      3.5037872881891801      21.134519708773048      14.077600054272221
   213   1      1.7437872881556622      19.374519705992455      17.597600051181132
   214   1      1.7437872881556622      21.134519708501635      19.357600054092647
   215   1      3.5037872882206873      19.374519708733597      19.357600054230087
   216   1       3.503787288191416      21.134519708689947      17.597600054214702
   217   1      1.7437872881556622      19.374519708596157      21.117600053998128
   218   1      1.7437872881584309      21.134519708760763      22.877600054258913
   219   1      3.5037872881564649      19.374519708758857      22.877600054258661
   220   1      3.5037872881571901      21.134519708759296      21.117600054255789
   221   1      1.7437872881579302      19.374519708760175      24.637600054259391
   222   1      1.7437872881556622      21.134519708760113      26.397600054257101
   223   1       3.503787288155662      19.374519708760293      26.397600054257101
   224   1      3.5037872881556664      21.134519708760116      24.637600054256442
   225   1      1.7437872881556622      22.894519708760146  -0.0023999457423745864
   226   1      1.7437872881556622      24.654519708760088      1.7576000542575674
   227   1      3.5037872881556713       22.89451970875988      1.7576000542578361
   228   1       3.503787288155662      24.654519708760567  -0.0023999457428548637
   229   1      1.7437872881584304      22.894519708762424      3.5176000542569485
   230   1      1.7437872881579302      24.654519708762898      5.2776000542575376
   231   1      3.5037872881564649      22.894519708762171      5.2776000542588566
   232   1      3.5037872881556669      24.654519708759949       3.517600054257596
   233   1      1.7437872881556622      22.894519708593421      7.0376000543154555
   234   1      1.7437872881987617      24.654519708803779      8.7976000542480204
   235   1      3.5037872881591232      22.894519708816386      8.7976000542466917
   236   1      3.5037872881557011      24.654519708760752      7.0376000542577142
   237   1      1.7437872881556622      22.894519707966285      10.557600054279183
   238   1       1.743787288227473      24.654519708832524      12.317600054257102
   239   1      3.5037872881604044      22.894519708862365      12.317600054257102
   240   1      3.5037872881557575      24.654519708764578       10.55760005425682
   241   1      1.7437872881556622      22.894519707966285      14.077600054235022
   242   1      1.7437872881987615      24.654519708803779      15.837600054266183
   243   1      3.5037872881589984       22.89451970881651      15.837600054267513
   244   1      3.5037872881557579      24.654519708764578      14.077600054257386
   245   1      1.7437872881556622      22.894519708593421       17.59760005419875
   246   1      1.7437872881579304      24.654519708762898      19.357600054256665
   247   1      3.5037872881564645      22.894519708762171      19.357600054255347
   248   1      3.5037872881557011      24.654519708760752      17.597600054256493
   249   1      1.7437872881584304      22.894519708762424      21.117600054257256
   250   1      1.7437872881556622      24.654519708760088      22.877600054256636
   251   1      3.5037872881556709       22.89451970875988      22.877600054256366
   252   1      3.5037872881556664      24.654519708759949      21.117600054256609
   253   1      1.7437872881556622      22.894519708760146      24.637600054256581
   254   1      1.7437872881556622      24.654519708760567      26.397600054257101
   255   1       3.503787288155662      22.894519708760562      26.397600054257101
   256   1       3.503787288155662      24.654519708760567       24.63760005425706
   257   1      5.2637872881557044     -1.7454802912393881  -0.0023999457428546976
   258   1      5.2637872881561858    0.014519708761132621      1.7576000542575665
   259   1       7.023787288156405     -1.7454802912393881      1.7576000542578445
   260   1      7.0237872881561279     0.01451970876113351  -0.0023999457423746619
   261   1      5.2637872881563315     -1.7454802912393881      3.5176000542575991
   262   1      5.2637872881533756    0.014519708758313765      5.2776000542575305
   263   1      7.0237872881548276     -1.7454802912393883      5.2776000542589525
   264   1      7.0237872881538523    0.014519708757768202      3.5176000542569477
   265   1      5.2637872881556262     -1.7454802912393885      7.0376000542577231
   266   1      5.2637872881118426    0.014519708716777213      8.7976000542480115
   267   1       7.023787288103434     -1.7454802912393887      8.7976000542468498
   268   1      7.0237872882584602    0.014519708840341261      7.0376000542848987
   269   1      5.2637872881519607     -1.7454802912393885      10.557600054256826
   270   1      5.2637872880822885    0.014519708687224409      12.317600054257102
   271   1      7.0237872880599364     -1.7454802912393887      12.317600054257102
   272   1      7.0237872886985828    0.014519709193690611      10.557600054240931
   273   1      5.2637872881519607     -1.7454802912393887      14.077600054257381
   274   1      5.2637872881124856    0.014519708717419588      15.837600054266193
   275   1       7.023787288103434     -1.7454802912393887      15.837600054267355
   276   1      7.0237872887530983    0.014519709278761228      14.077600054303831
   277   1      5.2637872881556262     -1.7454802912393883      17.597600054256482
   278   1      5.2637872881533756    0.014519708758313321      19.357600054256672
   279   1      7.0237872881548276     -1.7454802912393883      19.357600054255251
   280   1      7.0237872883228567    0.014519708935294195       17.59760005419875
   281   1      5.2637872881563315     -1.7454802912393881      21.117600054256606
   282   1      5.2637872881561858    0.014519708761132621      22.877600054256636
   283   1       7.023787288156405     -1.7454802912393881      22.877600054256359
   284   1      7.0237872881538523    0.014519708757768202       21.11760005425726
   285   1      5.2637872881557044     -1.7454802912393881       24.63760005425706
   286   1      5.2637872881557044    0.014519708760653671      26.397600054257101
   287   1      7.0237872881557122     -1.7454802912393881      26.397600054257101
   288   1      7.0237872881561279    0.014519708761133732      24.637600054256581
   289   1      5.2637872881561858      1.7745197087610758  -0.0023999457423757318
   290   1      5.2637872881528391      3.5345197087604294      1.7576000542552619
   291   1       7.023787288153029      1.7745197087579747      1.7576000542544656
   292   1      7.0237872881538523       3.534519708760457  -0.0023999457428978133
   293   1      5.2637872881528391       1.774519708758771      3.5176000542569201
   294   1      5.2637872892005291      3.5345197114835862      5.2776000554124103
   295   1      7.0237872850461649      1.7745197069020042      5.2776000525007722
   296   1      7.0237872952576854      3.5345197213442745      3.5176000604204649
   297   1      5.2637872882627113      1.7745197088924849      7.0376000542861092
   298   1      5.2637872762326126      3.5345197053710207      8.7976000451996246
   299   1      7.0237872673463517      1.7745196882050984      8.7976000421039533
   300   1       7.023787165727887      3.5345196743156828      7.0375999862169163
   301   1       5.263787288548329      1.7745197092462588          10.55760005422
   302   1       5.263787262172162      3.5345196953531657      12.317600053341957
   303   1      7.0237872548669218      1.7745196722454271      12.317600055697302
   304   1       7.023786539898599      3.5345191481586147      10.557599947443993
   305   1      5.2637872886131412      1.7745197092791947       14.07760005432344
   306   1      5.2637872754283208      3.5345197010100362      15.837600063238488
   307   1      7.0237872749083863      1.7745196935951379      15.837600067001262
   308   1      7.0237866368165705      3.5345191787847829      14.077600201217608
   309   1      5.2637872883300592      1.7745197089279565       17.59760005419886
   310   1      5.2637872884455135      3.5345197090194764       19.35760005409303
   311   1      7.0237872886485384      1.7745197092534357      19.357600053982221
   312   1      7.0237872650999602      3.5345196918632533      17.597600076519655
   313   1      5.2637872881528391      1.7745197087587714      21.117600054257284
   314   1      5.2637872881528391      3.5345197087604294      22.877600054258941
   315   1      7.0237872881530281      1.7745197087579747      22.877600054259737
   316   1      7.0237872887839252       3.534519709293737      21.117600053723976
   317   1      5.2637872881561858      1.7745197087610758      24.637600054256581
   318   1      5.2637872881563315      3.5345197087611089      26.397600054257101
   319   1       7.023787288156405      1.7745197087613538      26.397600054257101
   320   1      7.0237872881538523       3.534519708760457      24.637600054259945
   321   1      5.2637872881533756      5.2945197087610403  -0.0023999457428978133
   322   1      5.2637873020382315      7.0545197171584206      1.7576000658133339
   323   1      7.0237873086940876      5.2945197300386582      1.7576000763593234
   324   1      7.0237872985818672      7.0545197165872011  -0.0023999324486436821
   325   1      5.2637873047350876      5.2945197222547042      3.5176000661085371
   326   1      5.2637876471153415      7.0545198944353604      5.2776001769482406
   327   1      7.0237875441357964      5.2945200915736743      5.2776001421926608
   328   1      7.0237879666123737      7.0545202154530351      3.5176005845973441
   329   1      5.2637873311897447      5.2945197637889594       7.037600047842564
   330   1      5.2637875788293425      7.0545200276476336      8.7975999522942097
   331   1      7.0237857507853212      5.2945193196166294      8.7975996729387216
   332   1      7.0237846949337834      7.0545168938639087      7.0376026296745495
   333   1      5.2637870836560854      5.2945196666996486      10.557600005788279
   334   1      5.2637865605432612      7.0545197170938749      12.317599946515557
   335   1      7.0237880673880033      5.2945224735468619      12.317600147490101
   336   1      7.0237810852796496      7.0545140879754324      10.557604357012893
   337   1       5.263787057508055      5.2945196253645346       14.07760009322336
   338   1      5.2637871172482589      7.0545196457937607      15.837600127513522
   339   1      7.0237865217423003      5.2945193196364073      15.837600512772829
   340   1       7.023788260111794      7.0545211318019714      14.077603518445301
   341   1       5.263787285925579      5.2945197044957553      17.597600058581637
   342   1      5.2637872880206409       7.054519708370254      19.357600056625095
   343   1        7.02378727900913      5.2945197013042886      19.357600061954294
   344   1      7.0237867713933628      7.0545194526568533      17.597600398746934
   345   1      5.2637872884455135      5.2945197089246809      21.117600053998238
   346   1      5.2637872883300592      7.0545197088188534      22.877600054089754
   347   1      7.0237872886485384       5.294519709035491      22.877600053764276
   348   1      7.0237872934052188       7.054519712811814      21.117600052968022
   349   1      5.2637872881533756      5.2945197087610403      24.637600054259401
   350   1      5.2637872881556262      7.0545197087612319      26.397600054257101
   351   1      7.0237872881548276      5.2945197087624605      26.397600054257101
   352   1      7.0237872883228567      7.0545197088189635      24.637600054082419
   353   1      5.2637872883202981      8.8145197088211251  -0.0023999455629272067
   354   1       5.263787329134475      10.574519715018257      1.7576000882118377
   355   1      7.0237876755823159      8.8145198496128323      1.7576004584010028
   356   1      7.0237873194634384      10.574519715009105  -0.0023999061181547501
   357   1       5.263787617586134      8.8145197989601378        3.51760024695397
   358   1      5.2637894274832817      10.574519894521963       5.277600755676163