(written by ASE)

2047 atoms
1 atom types

0.0                   28.16  xlo xhi
0.0                   28.16  ylo yhi
0.0                   28.16  zlo zhi

Masses

     1      58.693399984901454 # Ni

Atoms # atomic

     1   1     -3.5011707411127784     -1.7411707411127768      1.7599999999999998
     2   1     -3.5011707411127784    0.018829258887222755      3.5199999999999996
     3   1     -1.7411707411127786     -1.7411707411127768      3.5199999999999996
     4   1     -1.7411707411127786    0.018829258887222977      1.7599999999999998
     5   1     -3.5011707411127784     -1.7411707411127768      5.2799999999999994
     6   1     -3.5011707411127784    0.018829258887222977                    7.04
     7   1     -1.7411707411127786     -1.7411707411127768                    7.04
     8   1     -1.7411707411127788    0.018829258887222755      5.2799999999999994
     9   1     -3.5011707411127784     -1.7411707411127768      8.8000000000000007
    10   1     -3.5011707411127784    0.018829258887224087                   10.56
    11   1     -1.7411707411127788     -1.7411707411127768                   10.56
    12   1     -1.7411707411127788    0.018829258887222755      8.8000000000000007
    13   1     -3.5011707411127784     -1.7411707411127768                   12.32
    14   1     -3.5011707411127784     0.01882925888722542                   14.08
    15   1     -1.7411707411127788     -1.7411707411127768                   14.08
    16   1     -1.7411707411127788    0.018829258887222755                   12.32
    17   1     -3.5011707411127784     -1.7411707411127768                   15.84
    18   1     -3.5011707411127784    0.018829258887224087      17.600000000000001
    19   1     -1.7411707411127786     -1.7411707411127768      17.600000000000001
    20   1     -1.7411707411127788    0.018829258887222755                   15.84
    21   1     -3.5011707411127784     -1.7411707411127768      19.359999999999999
    22   1     -3.5011707411127784    0.018829258887222755      21.120000000000005
    23   1     -1.7411707411127786     -1.7411707411127768      21.120000000000005
    24   1     -1.7411707411127786    0.018829258887222977      19.359999999999999
    25   1     -3.5011707411127784     -1.7411707411127768      22.879999999999995
    26   1     -3.5011707411127784    0.018829258887222755      24.640000000000001
    27   1     -1.7411707411127786     -1.7411707411127768      24.640000000000001
    28   1     -1.7411707411127786    0.018829258887222977      22.879999999999995
    29   1     -3.5011707411127784     -1.7411707411127768      26.399999999999999
    30   1     -3.5011707411127784    0.018829258887222755      28.160000000000004
    31   1     -1.7411707411127786     -1.7411707411127768      28.160000000000004
    32   1     -1.7411707411127786    0.018829258887222977      26.399999999999999
    33   1     -3.5011707411127784      1.7788292588872232      1.7599999999999998
    34   1     -3.5011707411127784      3.5388292588872234      3.5199999999999996
    35   1     -1.7411707411127788      1.7788292588872232      3.5199999999999996
    36   1     -1.7411707411127788      3.5388292588872234      1.7599999999999998
    37   1     -3.5011707411127784      1.7788292588872232      5.2799999999999994
    38   1     -3.5011707411127784      3.5388292588909751      7.0400000000029426
    39   1     -1.7411707411127788      1.7788292588872237                    7.04
    40   1     -1.7411707411127788      3.5388292588872234      5.2800000000000002
    41   1     -3.5011707411127784      1.7788292588873418      8.8000000000000558
    42   1     -3.5011707411127784      3.5388292589042649      10.560000000005751
    43   1     -1.7411707411127788      1.7788292588872245                   10.56
    44   1     -1.7411707411127786      3.5388292588872936      8.8000000000000362
    45   1     -3.5011707411127784      1.7788292588875891      12.320000000000061
    46   1     -3.5011707411127784      3.5388292589130073                   14.08
    47   1     -1.7411707411127788      1.7788292588872254                   14.08
    48   1     -1.7411707411127788      3.5388292588874251      12.320000000000038
    49   1     -3.5011707411127784      1.7788292588875891      15.839999999999939
    50   1     -3.5011707411127784      3.5388292589042649      17.599999999994253
    51   1     -1.7411707411127788      1.7788292588872245      17.600000000000001
    52   1     -1.7411707411127788      3.5388292588874251      15.839999999999963
    53   1     -3.5011707411127784      1.7788292588873418      19.359999999999943
    54   1     -3.5011707411127784      3.5388292588909751      21.119999999997056
    55   1     -1.7411707411127788      1.7788292588872232      21.120000000000005
    56   1     -1.7411707411127786      3.5388292588872936      19.359999999999964
    57   1     -3.5011707411127784      1.7788292588872232      22.879999999999995
    58   1     -3.5011707411127784      3.5388292588872234      24.640000000000001
    59   1     -1.7411707411127786      1.7788292588872232      24.640000000000001
    60   1     -1.7411707411127788      3.5388292588872234      22.879999999999995
    61   1     -3.5011707411127784      1.7788292588872232      26.399999999999999
    62   1     -3.5011707411127784      3.5388292588872234      28.160000000000004
    63   1     -1.7411707411127788      1.7788292588872232      28.160000000000004
    64   1     -1.7411707411127788      3.5388292588872234      26.399999999999999
    65   1     -3.5011707411127784      5.2988292588872232      1.7599999999999998
    66   1     -3.5011707411127784       7.058829258887279      3.5200000000001181
    67   1     -1.7411707411127786      5.2988292588872232      3.5199999999999996
    68   1     -1.7411707411127786      7.0588292588872239      1.7599999999999998
    69   1     -3.5011707411127784      5.2988292588901666      5.2800000000037519
    70   1     -3.5011707411127784      7.0588292590103556      7.0400000001631842
    71   1     -1.7411707411127788      5.2988292588887926      7.0400000000015686
    72   1     -1.7411707411127788      7.0588292588872612      5.2800000000000704
    73   1     -3.5011707411127784      5.2988292590504074      8.8000000001231324
    74   1     -3.5011707411127784       7.058829260824723       10.56000000122909
    75   1     -1.7411707411127788      5.2988292588938029      10.560000000002706
    76   1     -1.7411707411127788       7.058829258922497      8.8000000000352756
    77   1     -3.5011707411127784      5.2988292593251538      12.320000000075904
    78   1     -3.5011707411127784      7.0588292624504643                   14.08
    79   1     -1.7411707411127788      5.2988292588970181                   14.08
    80   1     -1.7411707411127788      7.0588292589872985      12.320000000024429
    81   1     -3.5011707411127784      5.2988292593251538      15.839999999924096
    82   1     -3.5011707411127784      7.0588292608247247      17.599999998770912
    83   1     -1.7411707411127788      5.2988292588938029      17.599999999997294
    84   1     -1.7411707411127788      7.0588292589872985      15.839999999975571
    85   1     -3.5011707411127784      5.2988292590504074      19.359999999876869
    86   1     -3.5011707411127784      7.0588292590103556      21.119999999836814
    87   1     -1.7411707411127786      5.2988292588887926      21.119999999998434
    88   1     -1.7411707411127786       7.058829258922497      19.359999999964728
    89   1     -3.5011707411127784      5.2988292588901666      22.879999999996244
    90   1     -3.5011707411127784       7.058829258887279       24.63999999999988
    91   1     -1.7411707411127786      5.2988292588872232      24.640000000000001
    92   1     -1.7411707411127786      7.0588292588872612      22.879999999999932
    93   1     -3.5011707411127784      5.2988292588872232      26.399999999999999
    94   1     -3.5011707411127784      7.0588292588872239      28.160000000000004
    95   1     -1.7411707411127786      5.2988292588872232      28.160000000000004
    96   1     -1.7411707411127786      7.0588292588872239      26.399999999999999
    97   1     -3.5011707411127784      8.8188292588872237      1.7599999999999998
    98   1     -3.5011707411127784      10.578829258887284      3.5200000000003655
    99   1     -1.7411707411127788      8.8188292588872237      3.5200000000000009
   100   1     -1.7411707411127788      10.578829258887223      1.7599999999999998
   101   1     -3.5011707411127784      8.8188292588929738      5.2800000000170408
   102   1     -3.5011707411127784      10.578829258963127      7.0400000004379306
   103   1     -1.7411707411127786      8.8188292588899309      7.0400000000065797
   104   1     -1.7411707411127788      10.578829258887261      5.2800000000002019
   105   1     -3.5011707411127784      8.8188292601163134      8.8000000019375015
   106   1     -3.5011707411127784      10.578829263499335      10.560000009722792
   107   1     -1.7411707411127788      8.8188292591479165      10.560000000260693
   108   1     -1.7411707411127788      10.578829258911652      8.8000000001000753
   109   1     -3.5011707411127784      8.8188292686100151      12.320000004612112
   110   1     -3.5011707411127784      10.578829275770618                   14.08
   111   1     -1.7411707411127788      8.8188292594178108                   14.08
   112   1     -1.7411707411127788      10.578829259671773       12.32000000078455
   113   1     -3.5011707411127784      8.8188292686100151      15.839999995387888
   114   1     -3.5011707411127784      10.578829263499335      17.599999990277208
   115   1     -1.7411707411127788      8.8188292591479165      17.599999999739307
   116   1     -1.7411707411127788      10.578829259671773      15.839999999215451
   117   1     -3.5011707411127784      8.8188292601163134      19.359999998062499
   118   1     -3.5011707411127784      10.578829258963127      21.119999999562069
   119   1     -1.7411707411127788      8.8188292588899309      21.119999999993425
   120   1     -1.7411707411127788      10.578829258911652      19.359999999899927
   121   1     -3.5011707411127784      8.8188292588929738      22.879999999982957
   122   1     -3.5011707411127784      10.578829258887284      24.639999999999638
   123   1     -1.7411707411127788      8.8188292588872237      24.640000000000001
   124   1     -1.7411707411127788      10.578829258887261      22.879999999999797
   125   1     -3.5011707411127784      8.8188292588872237      26.399999999999999
   126   1     -3.5011707411127784      10.578829258887223      28.160000000000004
   127   1     -1.7411707411127788      8.8188292588872237      28.160000000000004
   128   1     -1.7411707411127788      10.578829258887223      26.399999999999999
   129   1     -3.5011707411127784      12.338829258887223      1.7600000000000013
   130   1     -3.5011707411127784      14.098829258887163      3.5200000000003655
   131   1     -1.7411707411127786      12.338829258887225      3.5200000000000022
   132   1     -1.7411707411127786      14.098829258887225      1.7599999999999998
   133   1     -3.5011707411127784      12.338829258887223      5.2800000000257832
   134   1     -3.5011707411127784      14.098829258811321      7.0400000004379306
   135   1     -1.7411707411127788      12.338829258887223      7.0400000000097949
   136   1     -1.7411707411127786      14.098829258887186      5.2800000000002019
   137   1     -3.5011707411127784      12.338829258887223      8.8000000035632411
   138   1     -3.5011707411127784      14.098829254275111      10.560000009722792
   139   1     -1.7411707411127788      12.338829258887223      10.560000000530588
   140   1     -1.7411707411127786      14.098829258862796      8.8000000001000753
   141   1     -3.5011707411127784      12.338829258887223      12.320000016883395
   142   1     -3.5011707411127784      14.098829242003829                   14.08
   143   1     -1.7411707411127788      12.338829258887223                   14.08
   144   1     -1.7411707411127788      14.098829258102674       12.32000000078455
   145   1     -3.5011707411127784      12.338829258887223      15.839999983116606
   146   1     -3.5011707411127784      14.098829254275111      17.599999990277208
   147   1      -1.741170741112779      12.338829258887223      17.599999999469414
   148   1     -1.7411707411127788      14.098829258102674      15.839999999215451
   149   1     -3.5011707411127784      12.338829258887223      19.359999996436756
   150   1     -3.5011707411127784      14.098829258811321      21.119999999562069
   151   1     -1.7411707411127788      12.338829258887223      21.119999999990206
   152   1     -1.7411707411127786      14.098829258862796      19.359999999899927
   153   1     -3.5011707411127784      12.338829258887223      22.879999999974217
   154   1     -3.5011707411127784      14.098829258887163      24.639999999999638
   155   1     -1.7411707411127788      12.338829258887223      24.640000000000001
   156   1     -1.7411707411127786      14.098829258887186      22.879999999999797
   157   1     -3.5011707411127784      12.338829258887223      26.399999999999999
   158   1     -3.5011707411127784      14.098829258887225      28.160000000000004
   159   1     -1.7411707411127788      12.338829258887223      28.160000000000004
   160   1     -1.7411707411127786      14.098829258887225      26.399999999999999
   161   1     -3.5011707411127784      15.858829258887221      1.7599999999999998
   162   1     -3.5011707411127784      17.618829258887168      3.5200000000001181
   163   1     -1.7411707411127786      15.858829258887225      3.5200000000000009
   164   1     -1.7411707411127786      17.618829258887224      1.7599999999999998
   165   1     -3.5011707411127784      15.858829258881473      5.2800000000170408
   166   1     -3.5011707411127784      17.618829258764094      7.0400000001631842
   167   1     -1.7411707411127784      15.858829258884517      7.0400000000065797
   168   1     -1.7411707411127786      17.618829258887189      5.2800000000000704
   169   1     -3.5011707411127784      15.858829257658131      8.8000000019375015
   170   1     -3.5011707411127784      17.618829256949724       10.56000000122909
   171   1     -1.7411707411127786       15.85882925862653      10.560000000260693
   172   1     -1.7411707411127786      17.618829258851953      8.8000000000352756
   173   1     -3.5011707411127784      15.858829249164431      12.320000004612112
   174   1     -3.5011707411127784      17.618829255323988                   14.08
   175   1     -1.7411707411127788      15.858829258356634                   14.08
   176   1     -1.7411707411127786      17.618829258787152      12.320000000024429
   177   1     -3.5011707411127784      15.858829249164431      15.839999995387888
   178   1     -3.5011707411127784      17.618829256949724      17.599999998770912
   179   1     -1.7411707411127784       15.85882925862653       17.59999999973931
   180   1     -1.7411707411127788      17.618829258787152      15.839999999975571
   181   1     -3.5011707411127784      15.858829257658131      19.359999998062499
   182   1     -3.5011707411127784      17.618829258764094      21.119999999836814
   183   1     -1.7411707411127786      15.858829258884517      21.119999999993425
   184   1     -1.7411707411127786      17.618829258851953      19.359999999964728
   185   1     -3.5011707411127784      15.858829258881473      22.879999999982957
   186   1     -3.5011707411127784      17.618829258887168       24.63999999999988
   187   1     -1.7411707411127786      15.858829258887221      24.640000000000001
   188   1     -1.7411707411127786      17.618829258887189      22.879999999999932
   189   1     -3.5011707411127784      15.858829258887221      26.399999999999999
   190   1     -3.5011707411127784      17.618829258887224      28.160000000000004
   191   1     -1.7411707411127786      15.858829258887221      28.159999999999997
   192   1     -1.7411707411127786      17.618829258887224      26.399999999999999
   193   1     -3.5011707411127784      19.378829258887222      1.7599999999999998
   194   1     -3.5011707411127784      21.138829258887228      3.5199999999999996
   195   1     -1.7411707411127786      19.378829258887222      3.5199999999999996
   196   1     -1.7411707411127786      21.138829258887228      1.7599999999999998
   197   1     -3.5011707411127784      19.378829258884281      5.2800000000037519
   198   1     -3.5011707411127784      21.138829258883469      7.0400000000029435
   199   1     -1.7411707411127786      19.378829258885652      7.0400000000015686
   200   1     -1.7411707411127786      21.138829258887228      5.2799999999999994
   201   1     -3.5011707411127784      19.378829258724039      8.8000000001231342
   202   1     -3.5011707411127784      21.138829258870182      10.560000000005751
   203   1     -1.7411707411127788      19.378829258880643      10.560000000002706
   204   1     -1.7411707411127786      21.138829258887156      8.8000000000000362
   205   1     -3.5011707411127784      19.378829258449294      12.320000000075904
   206   1     -3.5011707411127784      21.138829258861442                   14.08
   207   1     -1.7411707411127788      19.378829258877424                   14.08
   208   1     -1.7411707411127788      21.138829258887021      12.320000000000038
   209   1     -3.5011707411127784      19.378829258449294      15.839999999924098
   210   1     -3.5011707411127784      21.138829258870182      17.599999999994253
   211   1     -1.7411707411127786      19.378829258880643      17.599999999997294
   212   1     -1.7411707411127788      21.138829258887021      15.839999999999963
   213   1     -3.5011707411127784      19.378829258724039      19.359999999876869
   214   1     -3.5011707411127784      21.138829258883469      21.119999999997056
   215   1     -1.7411707411127786      19.378829258885652      21.119999999998434
   216   1     -1.7411707411127786      21.138829258887156      19.359999999999964
   217   1     -3.5011707411127784      19.378829258884281      22.879999999996244
   218   1     -3.5011707411127784      21.138829258887228      24.640000000000001
   219   1     -1.7411707411127786      19.378829258887222      24.640000000000001
   220   1     -1.7411707411127786      21.138829258887228      22.879999999999995
   221   1     -3.5011707411127784      19.378829258887222      26.399999999999999
   222   1     -3.5011707411127784      21.138829258887228      28.160000000000004
   223   1     -1.7411707411127786      19.378829258887222      28.160000000000004
   224   1     -1.7411707411127786      21.138829258887228      26.399999999999999
   225   1     -3.5011707411127784      22.898829258887218      1.7599999999999998
   226   1     -3.5011707411127784      24.658829258887224      3.5199999999999996
   227   1     -1.7411707411127786      22.898829258887218      3.5199999999999996
   228   1     -1.7411707411127786      24.658829258887224      1.7599999999999998
   229   1     -3.5011707411127784      22.898829258887218      5.2799999999999994
   230   1     -3.5011707411127784      24.658829258887224                    7.04
   231   1     -1.7411707411127786      22.898829258887218                    7.04
   232   1     -1.7411707411127786      24.658829258887224      5.2799999999999994
   233   1     -3.5011707411127784      22.898829258887105      8.8000000000000558
   234   1     -3.5011707411127784      24.658829258887224                   10.56
   235   1     -1.7411707411127788      22.898829258887218                   10.56
   236   1     -1.7411707411127786      24.658829258887224      8.8000000000000007
   237   1     -3.5011707411127784      22.898829258886856      12.320000000000061
   238   1     -3.5011707411127784      24.658829258887224                   14.08
   239   1     -1.7411707411127788      22.898829258887218                   14.08
   240   1     -1.7411707411127788      24.658829258887224                   12.32
   241   1     -3.5011707411127784      22.898829258886856      15.839999999999939
   242   1     -3.5011707411127784      24.658829258887224      17.600000000000001
   243   1     -1.7411707411127786      22.898829258887218      17.600000000000001
   244   1     -1.7411707411127788      24.658829258887224                   15.84
   245   1     -3.5011707411127784      22.898829258887105      19.359999999999943
   246   1     -3.5011707411127784      24.658829258887224      21.120000000000005
   247   1     -1.7411707411127786      22.898829258887218      21.120000000000005
   248   1     -1.7411707411127786      24.658829258887224      19.359999999999999
   249   1     -3.5011707411127784      22.898829258887218      22.879999999999995
   250   1     -3.5011707411127784      24.658829258887224      24.640000000000001
   251   1     -1.7411707411127786      22.898829258887218      24.640000000000001
   252   1     -1.7411707411127786      24.658829258887224      22.879999999999995
   253   1     -3.5011707411127784      22.898829258887218      26.399999999999999
   254   1     -3.5011707411127784      24.658829258887224      28.160000000000004
   255   1     -1.7411707411127786      22.898829258887218      28.160000000000004
   256   1     -1.7411707411127786      24.658829258887224      26.399999999999999
   257   1    0.018829258887221645     -1.7411707411127768      1.7599999999999998
   258   1    0.018829258887221645    0.018829258887222755      3.5199999999999996
   259   1      1.7788292588872219     -1.7411707411127768      3.5199999999999996
   260   1      1.7788292588872219    0.018829258887222755      1.7599999999999998
   261   1    0.018829258887221645     -1.7411707411127768      5.2799999999999994
   262   1    0.018829258887222089    0.018829258887222755                    7.04
   263   1      1.7788292588872219     -1.7411707411127768                    7.04
   264   1      1.7788292588872219    0.018829258887222755      5.2800000000000002
   265   1    0.018829258887221645     -1.7411707411127768      8.8000000000000007
   266   1    0.018829258887222977    0.018829258887223865                   10.56
   267   1      1.7788292588872228     -1.7411707411127768                   10.56
   268   1        1.77882925888734     0.01882925888735909      8.8000000000000558
   269   1    0.018829258887221645     -1.7411707411127768                   12.32
   270   1    0.018829258887224753     0.01882925888722542                   14.08
   271   1      1.7788292588872245     -1.7411707411127768                   14.08
   272   1      1.7788292588875878    0.018829258887649969      12.320000000000061
   273   1    0.018829258887221645     -1.7411707411127768                   15.84
   274   1    0.018829258887223421    0.018829258887224087      17.600000000000001
   275   1      1.7788292588872228     -1.7411707411127768      17.600000000000001
   276   1      1.7788292588875878    0.018829258887649969      15.839999999999939
   277   1    0.018829258887221645     -1.7411707411127768      19.359999999999999
   278   1    0.018829258887222089    0.018829258887222977      21.120000000000005
   279   1      1.7788292588872219     -1.7411707411127768      21.120000000000005
   280   1        1.77882925888734     0.01882925888735909      19.359999999999943
   281   1    0.018829258887221645     -1.7411707411127768      22.879999999999995
   282   1    0.018829258887222089    0.018829258887222977      24.640000000000001
   283   1      1.7788292588872219     -1.7411707411127768      24.640000000000001
   284   1      1.7788292588872219    0.018829258887222755      22.879999999999995
   285   1    0.018829258887221645     -1.7411707411127768      26.399999999999999
   286   1    0.018829258887222089    0.018829258887222755      28.160000000000004
   287   1      1.7788292588872219     -1.7411707411127768      28.160000000000004
   288   1      1.7788292588872219    0.018829258887222755      26.399999999999999
   289   1    0.018829258887222089      1.7788292588872237      1.7599999999999998
   290   1    0.018829258887221645      3.5388292588872234      3.5199999999999996
   291   1      1.7788292588872219      1.7788292588872232      3.5199999999999996
   292   1      1.7788292588872219      3.5388292588872234      1.7599999999999998
   293   1    0.018829258887222089      1.7788292588872237      5.2800000000000002
   294   1    0.018829258892312239      3.5388292588909751      7.0400000000029435
   295   1      1.7788292588937056      1.7788292588937069      7.0400000000043166
   296   1      1.7788292588994699      3.5388292588976062      5.2800000000103831
   297   1     0.01882925888735798      1.7788292588873418      8.8000000000000558
   298   1    0.018829258910455504      3.5388292589042649      10.560000000005751
   299   1      1.7788292589174901      1.7788292589174919      10.560000000008801
   300   1      1.7788292594162085      3.5388292593369846      8.8000000002706997
   301   1    0.018829258887648859      1.7788292588875891      12.320000000000061
   302   1    0.018829258922792302      3.5388292589130073                   14.08
   303   1      1.7788292589334223      1.7788292589334236                   14.08
   304   1      1.7788292602348754      3.5388292600313553       12.32000000015495
   305   1    0.018829258887648859      1.7788292588875891      15.839999999999939
   306   1    0.018829258910455504      3.5388292589042649      17.599999999994253
   307   1      1.7788292589174901      1.7788292589174919      17.599999999991198
   308   1      1.7788292602348754      3.5388292600313553       15.83999999984505
   309   1     0.01882925888735798      1.7788292588873418      19.359999999999943
   310   1    0.018829258892312239       3.538829258890976      21.119999999997056
   311   1      1.7788292588937056      1.7788292588937069      21.119999999995684
   312   1      1.7788292594162085      3.5388292593369846      19.359999999729297
   313   1    0.018829258887222089      1.7788292588872237      22.879999999999995
   314   1    0.018829258887221645      3.5388292588872234      24.640000000000001
   315   1      1.7788292588872219      1.7788292588872237      24.640000000000001
   316   1       1.778829258899469      3.5388292588976062      22.879999999989614
   317   1    0.018829258887222089      1.7788292588872237      26.399999999999999
   318   1    0.018829258887221645      3.5388292588872234      28.160000000000004
   319   1      1.7788292588872219      1.7788292588872237      28.160000000000004
   320   1      1.7788292588872219      3.5388292588872234      26.399999999999999
   321   1    0.018829258887221645      5.2988292588872241      1.7599999999999998
   322   1     0.01882925888735798       7.058829258887279      3.5200000000001177
   323   1      1.7788292588937056      5.2988292588915398      3.5200000000064833
   324   1        1.77882925888734       7.058829258887279       1.760000000000135
   325   1    0.018829258892312239      5.2988292588901666      5.2800000000037528
   326   1    0.018829259170143331      7.0588292590103556      7.0400000001631842
   327   1      1.7788292599261064      5.2988292595978255      7.0400000007106014
   328   1      1.7788292594162085      7.0588292591579247      5.2800000004497605
   329   1    0.018829259170143331      5.2988292590504082      8.8000000001231342
   330   1    0.018829263537217145       7.058829260824723       10.56000000122909
   331   1      1.7788292682731868      5.2988292646985924      10.560000003301491
   332   1       1.778829265620713      7.0588292620304571      8.8000000031432339
   333   1    0.018829259642064944      5.2988292593251538      12.320000000075904
   334   1     0.01882926698742482      7.0588292624504643                   14.08
   335   1      1.7788292735648872      5.2988292679927156                   14.08
   336   1      1.7788292958658003      7.0588292651929443      12.320000012775827
   337   1    0.018829259642064944      5.2988292593251538      15.839999999924096
   338   1    0.018829263537217145      7.0588292608247247      17.599999998770912
   339   1      1.7788292682731859      5.2988292646985915      17.599999996698507
   340   1      1.7788292958658003      7.0588292651929443      15.839999987224173
   341   1    0.018829259170143331      5.2988292590504074      19.359999999876869
   342   1    0.018829259170143331      7.0588292590103556      21.119999999836814
   343   1      1.7788292599261064      5.2988292595978255      21.119999999289398
   344   1       1.778829265620713      7.0588292620304571      19.359999996856764
   345   1    0.018829258892312239      5.2988292588901666      22.879999999996244
   346   1     0.01882925888735798       7.058829258887279       24.63999999999988
   347   1      1.7788292588937056      5.2988292588915398       24.63999999999352
   348   1      1.7788292594162085      7.0588292591579247      22.879999999550236
   349   1    0.018829258887221645      5.2988292588872241      26.399999999999999
   350   1    0.018829258887221645      7.0588292588872239      28.160000000000004
   351   1      1.7788292588872219      5.2988292588872241      28.160000000000004
   352   1        1.77882925888734       7.058829258887279      26.399999999999864
   353   1    0.018829258887222977      8.8188292588872237                    1.76
   354   1    0.018829258887648859      10.578829258887284      3.5200000000003655
   355   1      1.7788292589174901      8.8188292588960255      3.5200000000302678
   356   1      1.7788292588875878      10.578829258887284      1.7600000000004259
   357   1     0.01882925891045506      8.8188292588929738      5.2800000000170417
   358   1    0.018829259642064944      10.578829258963127      7.0400000004379306