(written by ASE)

2047 atoms
1 atom types

0.0                   28.16  xlo xhi
0.0                   28.16  ylo yhi
0.0                   28.16  zlo zhi

Atoms # atomic

     1   1                       0                       0                       0
     2   1                       0                    1.76                    1.76
     3   1                    1.76                       0                    1.76
     4   1                    1.76                    1.76                       0
     5   1                       0                       0                    3.52
     6   1                       0                    1.76      5.2800000000000002
     7   1                    1.76                       0      5.2800000000000002
     8   1                    1.76                    1.76                    3.52
     9   1                       0                       0                    7.04
    10   1                       0                    1.76      8.8000000000000007
    11   1                    1.76                       0      8.8000000000000007
    12   1                    1.76                    1.76                    7.04
    13   1                       0                       0                   10.56
    14   1                       0                    1.76                   12.32
    15   1                    1.76                       0                   12.32
    16   1                    1.76                    1.76                   10.56
    17   1                       0                       0                   14.08
    18   1                       0                    1.76                   15.84
    19   1                    1.76                       0                   15.84
    20   1                    1.76                    1.76                   14.08
    21   1                       0                       0      17.600000000000001
    22   1                       0                    1.76      19.360000000000003
    23   1                    1.76                       0      19.360000000000003
    24   1                    1.76                    1.76      17.600000000000001
    25   1                       0                       0      21.120000000000001
    26   1                       0                    1.76      22.880000000000003
    27   1                    1.76                       0      22.880000000000003
    28   1                    1.76                    1.76      21.120000000000001
    29   1                       0                       0      24.640000000000001
    30   1                       0                    1.76      26.400000000000002
    31   1                    1.76                       0      26.400000000000002
    32   1                    1.76                    1.76      24.640000000000001
    33   1                       0                    3.52                       0
    34   1                       0      5.2800000000000002                    1.76
    35   1                    1.76                    3.52                    1.76
    36   1                    1.76      5.2800000000000002                       0
    37   1                       0                    3.52                    3.52
    38   1                       0      5.2800000000000002      5.2800000000000002
    39   1                    1.76                    3.52      5.2800000000000002
    40   1                    1.76      5.2800000000000002                    3.52
    41   1                       0                    3.52                    7.04
    42   1                       0      5.2800000000000002      8.8000000000000007
    43   1                    1.76                    3.52      8.8000000000000007
    44   1                    1.76      5.2800000000000002                    7.04
    45   1                       0                    3.52                   10.56
    46   1                       0      5.2800000000000002                   12.32
    47   1                    1.76                    3.52                   12.32
    48   1                    1.76      5.2800000000000002                   10.56
    49   1                       0                    3.52                   14.08
    50   1                       0      5.2800000000000002                   15.84
    51   1                    1.76                    3.52                   15.84
    52   1                    1.76      5.2800000000000002                   14.08
    53   1                       0                    3.52      17.600000000000001
    54   1                       0      5.2800000000000002      19.360000000000003
    55   1                    1.76                    3.52      19.360000000000003
    56   1                    1.76      5.2800000000000002      17.600000000000001
    57   1                       0                    3.52      21.120000000000001
    58   1                       0      5.2800000000000002      22.880000000000003
    59   1                    1.76                    3.52      22.880000000000003
    60   1                    1.76      5.2800000000000002      21.120000000000001
    61   1                       0                    3.52      24.640000000000001
    62   1                       0      5.2800000000000002      26.400000000000002
    63   1                    1.76                    3.52      26.400000000000002
    64   1                    1.76      5.2800000000000002      24.640000000000001
    65   1                       0                    7.04                       0
    66   1                       0      8.8000000000000007                    1.76
    67   1                    1.76                    7.04                    1.76
    68   1                    1.76      8.8000000000000007                       0
    69   1                       0                    7.04                    3.52
    70   1                       0      8.8000000000000007      5.2800000000000002
    71   1                    1.76                    7.04      5.2800000000000002
    72   1                    1.76      8.8000000000000007                    3.52
    73   1                       0                    7.04                    7.04
    74   1                       0      8.8000000000000007      8.8000000000000007
    75   1                    1.76                    7.04      8.8000000000000007
    76   1                    1.76      8.8000000000000007                    7.04
    77   1                       0                    7.04                   10.56
    78   1                       0      8.8000000000000007                   12.32
    79   1                    1.76                    7.04                   12.32
    80   1                    1.76      8.8000000000000007                   10.56
    81   1                       0                    7.04                   14.08
    82   1                       0      8.8000000000000007                   15.84
    83   1                    1.76                    7.04                   15.84
    84   1                    1.76      8.8000000000000007                   14.08
    85   1                       0                    7.04      17.600000000000001
    86   1                       0      8.8000000000000007      19.360000000000003
    87   1                    1.76                    7.04      19.360000000000003
    88   1                    1.76      8.8000000000000007      17.600000000000001
    89   1                       0                    7.04      21.120000000000001
    90   1                       0      8.8000000000000007      22.880000000000003
    91   1                    1.76                    7.04      22.880000000000003
    92   1                    1.76      8.8000000000000007      21.120000000000001
    93   1                       0                    7.04      24.640000000000001
    94   1                       0      8.8000000000000007      26.400000000000002
    95   1                    1.76                    7.04      26.400000000000002
    96   1                    1.76      8.8000000000000007      24.640000000000001
    97   1                       0                   10.56                       0
    98   1                       0                   12.32                    1.76
    99   1                    1.76                   10.56                    1.76
   100   1                    1.76                   12.32                       0
   101   1                       0                   10.56                    3.52
   102   1                       0                   12.32      5.2800000000000002
   103   1                    1.76                   10.56      5.2800000000000002
   104   1                    1.76                   12.32                    3.52
   105   1                       0                   10.56                    7.04
   106   1                       0                   12.32      8.8000000000000007
   107   1                    1.76                   10.56      8.8000000000000007
   108   1                    1.76                   12.32                    7.04
   109   1                       0                   10.56                   10.56
   110   1                       0                   12.32                   12.32
   111   1                    1.76                   10.56                   12.32
   112   1                    1.76                   12.32                   10.56
   113   1                       0                   10.56                   14.08
   114   1                       0                   12.32                   15.84
   115   1                    1.76                   10.56                   15.84
   116   1                    1.76                   12.32                   14.08
   117   1                       0                   10.56      17.600000000000001
   118   1                       0                   12.32      19.360000000000003
   119   1                    1.76                   10.56      19.360000000000003
   120   1                    1.76                   12.32      17.600000000000001
   121   1                       0                   10.56      21.120000000000001
   122   1                       0                   12.32      22.880000000000003
   123   1                    1.76                   10.56      22.880000000000003
   124   1                    1.76                   12.32      21.120000000000001
   125   1                       0                   10.56      24.640000000000001
   126   1                       0                   12.32      26.400000000000002
   127   1                    1.76                   10.56      26.400000000000002
   128   1                    1.76                   12.32      24.640000000000001
   129   1                       0                   14.08                       0
   130   1                       0                   15.84                    1.76
   131   1                    1.76                   14.08                    1.76
   132   1                    1.76                   15.84                       0
   133   1                       0                   14.08                    3.52
   134   1                       0                   15.84      5.2800000000000002
   135   1                    1.76                   14.08      5.2800000000000002
   136   1                    1.76                   15.84                    3.52
   137   1                       0                   14.08                    7.04
   138   1                       0                   15.84      8.8000000000000007
   139   1                    1.76                   14.08      8.8000000000000007
   140   1                    1.76                   15.84                    7.04
   141   1                       0                   14.08                   10.56
   142   1                       0                   15.84                   12.32
   143   1                    1.76                   14.08                   12.32
   144   1                    1.76                   15.84                   10.56
   145   1                       0                   14.08                   14.08
   146   1                       0                   15.84                   15.84
   147   1                    1.76                   14.08                   15.84
   148   1                    1.76                   15.84                   14.08
   149   1                       0                   14.08      17.600000000000001
   150   1                       0                   15.84      19.360000000000003
   151   1                    1.76                   14.08      19.360000000000003
   152   1                    1.76                   15.84      17.600000000000001
   153   1                       0                   14.08      21.120000000000001
   154   1                       0                   15.84      22.880000000000003
   155   1                    1.76                   14.08      22.880000000000003
   156   1                    1.76                   15.84      21.120000000000001
   157   1                       0                   14.08      24.640000000000001
   158   1                       0                   15.84      26.400000000000002
   159   1                    1.76                   14.08      26.400000000000002
   160   1                    1.76                   15.84      24.640000000000001
   161   1                       0      17.600000000000001                       0
   162   1                       0      19.360000000000003                    1.76
   163   1                    1.76      17.600000000000001                    1.76
   164   1                    1.76      19.360000000000003                       0
   165   1                       0      17.600000000000001                    3.52
   166   1                       0      19.360000000000003      5.2800000000000002
   167   1                    1.76      17.600000000000001      5.2800000000000002
   168   1                    1.76      19.360000000000003                    3.52
   169   1                       0      17.600000000000001                    7.04
   170   1                       0      19.360000000000003      8.8000000000000007
   171   1                    1.76      17.600000000000001      8.8000000000000007
   172   1                    1.76      19.360000000000003                    7.04
   173   1                       0      17.600000000000001                   10.56
   174   1                       0      19.360000000000003                   12.32
   175   1                    1.76      17.600000000000001                   12.32
   176   1                    1.76      19.360000000000003                   10.56
   177   1                       0      17.600000000000001                   14.08
   178   1                       0      19.360000000000003                   15.84
   179   1                    1.76      17.600000000000001                   15.84
   180   1                    1.76      19.360000000000003                   14.08
   181   1                       0      17.600000000000001      17.600000000000001
   182   1                       0      19.360000000000003      19.360000000000003
   183   1                    1.76      17.600000000000001      19.360000000000003
   184   1                    1.76      19.360000000000003      17.600000000000001
   185   1                       0      17.600000000000001      21.120000000000001
   186   1                       0      19.360000000000003      22.880000000000003
   187   1                    1.76      17.600000000000001      22.880000000000003
   188   1                    1.76      19.360000000000003      21.120000000000001
   189   1                       0      17.600000000000001      24.640000000000001
   190   1                       0      19.360000000000003      26.400000000000002
   191   1                    1.76      17.600000000000001      26.400000000000002
   192   1                    1.76      19.360000000000003      24.640000000000001
   193   1                       0      21.120000000000001                       0
   194   1                       0      22.880000000000003                    1.76
   195   1                    1.76      21.120000000000001                    1.76
   196   1                    1.76      22.880000000000003                       0
   197   1                       0      21.120000000000001                    3.52
   198   1                       0      22.880000000000003      5.2800000000000002
   199   1                    1.76      21.120000000000001      5.2800000000000002
   200   1                    1.76      22.880000000000003                    3.52
   201   1                       0      21.120000000000001                    7.04
   202   1                       0      22.880000000000003      8.8000000000000007
   203   1                    1.76      21.120000000000001      8.8000000000000007
   204   1                    1.76      22.880000000000003                    7.04
   205   1                       0      21.120000000000001                   10.56
   206   1                       0      22.880000000000003                   12.32
   207   1                    1.76      21.120000000000001                   12.32
   208   1                    1.76      22.880000000000003                   10.56
   209   1                       0      21.120000000000001                   14.08
   210   1                       0      22.880000000000003                   15.84
   211   1                    1.76      21.120000000000001                   15.84
   212   1                    1.76      22.880000000000003                   14.08
   213   1                       0      21.120000000000001      17.600000000000001
   214   1                       0      22.880000000000003      19.360000000000003
   215   1                    1.76      21.120000000000001      19.360000000000003
   216   1                    1.76      22.880000000000003      17.600000000000001
   217   1                       0      21.120000000000001      21.120000000000001
   218   1                       0      22.880000000000003      22.880000000000003
   219   1                    1.76      21.120000000000001      22.880000000000003
   220   1                    1.76      22.880000000000003      21.120000000000001
   221   1                       0      21.120000000000001      24.640000000000001
   222   1                       0      22.880000000000003      26.400000000000002
   223   1                    1.76      21.120000000000001      26.400000000000002
   224   1                    1.76      22.880000000000003      24.640000000000001
   225   1                       0      24.640000000000001                       0
   226   1                       0      26.400000000000002                    1.76
   227   1                    1.76      24.640000000000001                    1.76
   228   1                    1.76      26.400000000000002                       0
   229   1                       0      24.640000000000001                    3.52
   230   1                       0      26.400000000000002      5.2800000000000002
   231   1                    1.76      24.640000000000001      5.2800000000000002
   232   1                    1.76      26.400000000000002                    3.52
   233   1                       0      24.640000000000001                    7.04
   234   1                       0      26.400000000000002      8.8000000000000007
   235   1                    1.76      24.640000000000001      8.8000000000000007
   236   1                    1.76      26.400000000000002                    7.04
   237   1                       0      24.640000000000001                   10.56
   238   1                       0      26.400000000000002                   12.32
   239   1                    1.76      24.640000000000001                   12.32
   240   1                    1.76      26.400000000000002                   10.56
   241   1                       0      24.640000000000001                   14.08
   242   1                       0      26.400000000000002                   15.84
   243   1                    1.76      24.640000000000001                   15.84
   244   1                    1.76      26.400000000000002                   14.08
   245   1                       0      24.640000000000001      17.600000000000001
   246   1                       0      26.400000000000002      19.360000000000003
   247   1                    1.76      24.640000000000001      19.360000000000003
   248   1                    1.76      26.400000000000002      17.600000000000001
   249   1                       0      24.640000000000001      21.120000000000001
   250   1                       0      26.400000000000002      22.880000000000003
   251   1                    1.76      24.640000000000001      22.880000000000003
   252   1                    1.76      26.400000000000002      21.120000000000001
   253   1                       0      24.640000000000001      24.640000000000001
   254   1                       0      26.400000000000002      26.400000000000002
   255   1                    1.76      24.640000000000001      26.400000000000002
   256   1                    1.76      26.400000000000002      24.640000000000001
   257   1                    3.52                       0                       0
   258   1                    3.52                    1.76                    1.76
   259   1      5.2800000000000002                       0                    1.76
   260   1      5.2800000000000002                    1.76                       0
   261   1                    3.52                       0                    3.52
   262   1                    3.52                    1.76      5.2800000000000002
   263   1      5.2800000000000002                       0      5.2800000000000002
   264   1      5.2800000000000002                    1.76                    3.52
   265   1                    3.52                       0                    7.04
   266   1                    3.52                    1.76      8.8000000000000007
   267   1      5.2800000000000002                       0      8.8000000000000007
   268   1      5.2800000000000002                    1.76                    7.04
   269   1                    3.52                       0                   10.56
   270   1                    3.52                    1.76                   12.32
   271   1      5.2800000000000002                       0                   12.32
   272   1      5.2800000000000002                    1.76                   10.56
   273   1                    3.52                       0                   14.08
   274   1                    3.52                    1.76                   15.84
   275   1      5.2800000000000002                       0                   15.84
   276   1      5.2800000000000002                    1.76                   14.08
   277   1                    3.52                       0      17.600000000000001
   278   1                    3.52                    1.76      19.360000000000003
   279   1      5.2800000000000002                       0      19.360000000000003
   280   1      5.2800000000000002                    1.76      17.600000000000001
   281   1                    3.52                       0      21.120000000000001
   282   1                    3.52                    1.76      22.880000000000003
   283   1      5.2800000000000002                       0      22.880000000000003
   284   1      5.2800000000000002                    1.76      21.120000000000001
   285   1                    3.52                       0      24.640000000000001
   286   1                    3.52                    1.76      26.400000000000002
   287   1      5.2800000000000002                       0      26.400000000000002
   288   1      5.2800000000000002                    1.76      24.640000000000001
   289   1                    3.52                    3.52                       0
   290   1                    3.52      5.2800000000000002                    1.76
   291   1      5.2800000000000002                    3.52                    1.76
   292   1      5.2800000000000002      5.2800000000000002                       0
   293   1                    3.52                    3.52                    3.52
   294   1                    3.52      5.2800000000000002      5.2800000000000002
   295   1      5.2800000000000002                    3.52      5.2800000000000002
   296   1      5.2800000000000002      5.2800000000000002                    3.52
   297   1                    3.52                    3.52                    7.04
   298   1                    3.52      5.2800000000000002      8.8000000000000007
   299   1      5.2800000000000002                    3.52      8.8000000000000007
   300   1      5.2800000000000002      5.2800000000000002                    7.04
   301   1                    3.52                    3.52                   10.56
   302   1                    3.52      5.2800000000000002                   12.32
   303   1      5.2800000000000002                    3.52                   12.32
   304   1      5.2800000000000002      5.2800000000000002                   10.56
   305   1                    3.52                    3.52                   14.08
   306   1                    3.52      5.2800000000000002                   15.84
   307   1      5.2800000000000002                    3.52                   15.84
   308   1      5.2800000000000002      5.2800000000000002                   14.08
   309   1                    3.52                    3.52      17.600000000000001
   310   1                    3.52      5.2800000000000002      19.360000000000003
   311   1      5.2800000000000002                    3.52      19.360000000000003
   312   1      5.2800000000000002      5.2800000000000002      17.600000000000001
   313   1                    3.52                    3.52      21.120000000000001
   314   1                    3.52      5.2800000000000002      22.880000000000003
   315   1      5.2800000000000002                    3.52      22.880000000000003
   316   1      5.2800000000000002      5.2800000000000002      21.120000000000001
   317   1                    3.52                    3.52      24.640000000000001
   318   1                    3.52      5.2800000000000002      26.400000000000002
   319   1      5.2800000000000002                    3.52      26.400000000000002
   320   1      5.2800000000000002      5.2800000000000002      24.640000000000001
   321   1                    3.52                    7.04                       0
   322   1                    3.52      8.8000000000000007                    1.76
   323   1      5.2800000000000002                    7.04                    1.76
   324   1      5.2800000000000002      8.8000000000000007                       0
   325   1                    3.52                    7.04                    3.52
   326   1                    3.52      8.8000000000000007      5.2800000000000002
   327   1      5.2800000000000002                    7.04      5.2800000000000002
   328   1      5.2800000000000002      8.8000000000000007                    3.52
   329   1                    3.52                    7.04                    7.04
   330   1                    3.52      8.8000000000000007      8.8000000000000007
   331   1      5.2800000000000002                    7.04      8.8000000000000007
   332   1      5.2800000000000002      8.8000000000000007                    7.04
   333   1                    3.52                    7.04                   10.56
   334   1                    3.52      8.8000000000000007                   12.32
   335   1      5.2800000000000002                    7.04                   12.32
   336   1      5.2800000000000002      8.8000000000000007                   10.56
   337   1                    3.52                    7.04                   14.08
   338   1                    3.52      8.8000000000000007                   15.84
   339   1      5.2800000000000002                    7.04                   15.84
   340   1      5.2800000000000002      8.8000000000000007                   14.08
   341   1                    3.52                    7.04      17.600000000000001
   342   1                    3.52      8.8000000000000007      19.360000000000003
   343   1      5.2800000000000002                    7.04      19.360000000000003
   344   1      5.2800000000000002      8.8000000000000007      17.600000000000001
   345   1                    3.52                    7.04      21.120000000000001
   346   1                    3.52      8.8000000000000007      22.880000000000003
   347   1      5.2800000000000002                    7.04      22.880000000000003
   348   1      5.2800000000000002      8.8000000000000007      21.120000000000001
   349   1                    3.52                    7.04      24.640000000000001
   350   1                    3.52      8.8000000000000007      26.400000000000002
   351   1      5.2800000000000002                    7.04      26.400000000000002
   352   1      5.2800000000000002      8.8000000000000007      24.640000000000001
   353   1                    3.52                   10.56                       0
   354   1                    3.52                   12.32                    1.76
   355   1      5.2800000000000002                   10.56                    1.76
   356   1      5.2800000000000002                   12.32                       0
   357   1                    3.52                   10.56                    3.52
   358   1                    3.52                   12.32      5.2800000000000002
   359   1      5.2800000000000002                   10.56      5.2800000000000002