(written by ASE)

2047 atoms
1 atom types

0.0                   28.16  xlo xhi
0.0                   28.16  ylo yhi
0.0                   28.16  zlo zhi

Masses

     1      58.693399984901454 # Ni

Atoms # atomic

     1   1      3.5011707747957721                   14.08                  -10.56
     2   1      3.5011707457627725       15.83999999877091     -8.8000000019375015
     3   1      5.2611707780913566                   14.08     -8.8000000063057211
     4   1       5.261170725318868      15.839999979503702                  -10.56
     5   1      3.5011707418676199                   14.08     -7.0400000004379306
     6   1      3.5011707411360105       15.83999999999425     -5.2800000000170417
     7   1      5.2611707424604317                   14.08     -5.2800000011441321
     8   1      5.2611707504987422      15.839999996698507     -7.0400000058113683
     9   1      3.5011707411132043                   14.08     -3.5200000000003655
    10   1      3.5011707411127788                   15.84     -1.7600000000000016
    11   1      5.2611707411131441                   14.08     -1.7600000000004279
    12   1      5.2611707411430464        15.8399999999912     -3.5200000000302687
    13   1      3.5011707411127784                   14.08                       0
    14   1      3.5011707411127788                   15.84      1.7600000000000016
    15   1      5.2611707411131441                   14.08      1.7600000000004261
    16   1       5.261170741112779                   15.84                       0
    17   1      3.5011707411132043                   14.08      3.5200000000003655
    18   1      3.5011707411360105       15.83999999999425      5.2800000000170417
    19   1      5.2611707424604317                   14.08       5.280000001144133
    20   1      5.2611707411430464        15.8399999999912      3.5200000000302687
    21   1      3.5011707418676203                   14.08      7.0400000004379297
    22   1      3.5011707457627725       15.83999999877091      8.8000000019374998
    23   1      5.2611707780913566                   14.08      8.8000000063057211
    24   1      5.2611707504987422      15.839999996698507      7.0400000058113665
    25   1      3.5011707747957721                   14.08       10.56000000972279
    26   1      3.5011707747957725      15.839999990277207      12.320000004612114
    27   1      5.2611706165777088                   14.08      12.320000095087275
    28   1       5.261170725318868      15.839999979503702      10.560000020496298
    29   1      3.5011708520193734                   14.08      14.079999999999997
    30   1      3.5011707747957725      15.839999990277207      15.839999995387886
    31   1      5.2611706165777088                   14.08      15.839999904912725
    32   1      5.2611707569726303      15.840000024151593      14.079999999999997
    33   1      3.5011707457627725      17.599999998062501                  -10.56
    34   1      3.5011707413956987      19.359999999836816     -8.8000000001231342
    35   1      5.2611707478462693      17.599999996856766     -8.8000000031432339
    36   1      5.2611707504987422      19.359999994188634                  -10.56
    37   1      3.5011707413956987      17.599999999876868     -7.0400000001631842
    38   1      3.5011707411178672      19.359999999997058     -5.2800000000037528
    39   1      5.2611707416417648      17.599999999729299     -5.2800000004497614
    40   1      5.2611707421516627        19.3599999992894     -7.0400000007106023
    41   1      3.5011707411129134      17.599999999999945     -3.5200000000001186
    42   1      3.5011707411127784      19.359999999999999     -1.7599999999999998
    43   1      5.2611707411128963      17.599999999999945     -1.7600000000001366
    44   1      5.2611707411192619      19.359999999995683     -3.5200000000064833
    45   1      3.5011707411127784      17.600000000000001                       0
    46   1      3.5011707411127784      19.359999999999999      1.7599999999999998
    47   1      5.2611707411128963      17.599999999999945      1.7600000000001366
    48   1      5.2611707411127782      19.359999999999999                       0
    49   1      3.5011707411129134      17.599999999999945      3.5200000000001186
    50   1      3.5011707411178672      19.359999999997058      5.2800000000037528
    51   1      5.2611707416417648      17.599999999729299      5.2800000004497623
    52   1      5.2611707411192619      19.359999999995686      3.5200000000064833
    53   1      3.5011707413956987      17.599999999876868      7.0400000001631842
    54   1      3.5011707413956987      19.359999999836816      8.8000000001231324
    55   1      5.2611707478462693      17.599999996856766      8.8000000031432339
    56   1      5.2611707421516627        19.3599999992894      7.0400000007106005
    57   1      3.5011707457627725      17.599999998062501      10.560000001229087
    58   1      3.5011707418676203      19.359999999562071      12.320000000075902
    59   1      5.2611707780913566      17.599999993694279      12.320000012775827
    60   1      5.2611707504987422      19.359999994188634      10.560000003301491
    61   1      3.5011707492129802      17.599999996436761      14.079999999999997
    62   1      3.5011707418676203      19.359999999562071      15.839999999924098
    63   1      5.2611707780913566      17.599999993694279      15.839999987224173
    64   1      5.2611707557904435      19.359999990894508      14.079999999999997
    65   1      3.5011707411360105      21.119999999982959                  -10.56
    66   1      3.5011707411129134      22.879999999999882     -8.8000000000000558
    67   1      5.2611707416417648      21.119999999550238     -8.8000000002707015
    68   1      5.2611707411430464      22.879999999969733                  -10.56
    69   1      3.5011707411178672      21.119999999996249     -7.0400000000029435
    70   1      3.5011707411127784      22.880000000000003     -5.2800000000000002
    71   1      5.2611707411250261      21.119999999989616     -5.2800000000103831
    72   1      5.2611707411192619      22.879999999993515     -7.0400000000043166
    73   1      3.5011707411127784      21.120000000000001     -3.5199999999999996
    74   1      3.5011707411127784      22.880000000000003     -1.7599999999999998
    75   1      5.2611707411127782      21.120000000000001     -1.7599999999999998
    76   1      5.2611707411127782      22.880000000000003     -3.5199999999999996
    77   1      3.5011707411127784      21.120000000000001                       0
    78   1      3.5011707411127784      22.880000000000003      1.7599999999999998
    79   1      5.2611707411127782      21.120000000000001      1.7599999999999998
    80   1      5.2611707411127782      22.880000000000003                       0
    81   1      3.5011707411127784      21.120000000000001      3.5199999999999996
    82   1      3.5011707411127784      22.880000000000003      5.2800000000000011
    83   1      5.2611707411250261      21.119999999989616      5.2800000000103822
    84   1      5.2611707411127782      22.880000000000003      3.5199999999999996
    85   1      3.5011707411178676      21.119999999996249      7.0400000000029426
    86   1      3.5011707411129134      22.879999999999882      8.8000000000000558
    87   1      5.2611707416417648      21.119999999550238      8.8000000002707015
    88   1      5.2611707411192619      22.879999999993515      7.0400000000043139
    89   1      3.5011707411360105      21.119999999982959      10.560000000005749
    90   1      3.5011707411132047      22.879999999999633      12.320000000000062
    91   1      5.2611707424604317      21.119999998855867       12.32000000015495
    92   1      5.2611707411430464      22.879999999969733      10.560000000008801
    93   1      3.5011707411483477      21.119999999974219      14.079999999999997
    94   1      3.5011707411132047      22.879999999999633      15.839999999999938
    95   1      5.2611707424604317      21.119999998855867       15.83999999984505
    96   1      5.2611707411589785        22.8799999999538      14.079999999999997
    97   1      3.5011707411127784      24.640000000000001                  -10.56
    98   1      3.5011707411127784      26.399999999999999     -8.8000000000000007
    99   1      5.2611707411128963      24.639999999999866     -8.8000000000000558
   100   1       5.261170741112779      26.399999999999999                  -10.56
   101   1      3.5011707411127784      24.640000000000001     -7.0400000000000009
   102   1      3.5011707411127784      26.399999999999999     -5.2800000000000002
   103   1      5.2611707411127782      24.640000000000001     -5.2800000000000002
   104   1      5.2611707411127782      26.399999999999999     -7.0400000000000009
   105   1      3.5011707411127784      24.640000000000001     -3.5199999999999996
   106   1      3.5011707411127784      26.399999999999999     -1.7599999999999998
   107   1      5.2611707411127782      24.640000000000001     -1.7599999999999998
   108   1      5.2611707411127782      26.399999999999999     -3.5200000000000005
   109   1      3.5011707411127784      24.640000000000001                       0
   110   1      3.5011707411127784      26.399999999999999      1.7599999999999998
   111   1      5.2611707411127782      24.640000000000001      1.7599999999999998
   112   1      5.2611707411127782      26.399999999999999                       0
   113   1      3.5011707411127784      24.640000000000001      3.5199999999999996
   114   1      3.5011707411127784      26.399999999999999      5.2800000000000011
   115   1      5.2611707411127782      24.640000000000001      5.2800000000000011
   116   1      5.2611707411127782      26.399999999999999      3.5199999999999996
   117   1      3.5011707411127784      24.640000000000001      7.0399999999999974
   118   1      3.5011707411127784      26.399999999999999      8.8000000000000025
   119   1      5.2611707411128963      24.639999999999866      8.8000000000000558
   120   1      5.2611707411127782      26.399999999999999      7.0399999999999974
   121   1      3.5011707411127784      24.640000000000001                   10.56
   122   1      3.5011707411127784      26.399999999999999      12.320000000000002
   123   1      5.2611707411131441      24.639999999999574      12.320000000000062
   124   1       5.261170741112779      26.399999999999999                   10.56
   125   1      3.5011707411127797      24.640000000000001      14.079999999999997
   126   1      3.5011707411127784      26.399999999999999      15.840000000000002
   127   1      5.2611707411131441      24.639999999999574      15.839999999999938
   128   1      5.2611707411127799      26.399999999999999      14.079999999999997
   129   1      3.5011707411127784      28.160000000000004                  -10.56
   130   1      3.5011707411129134      29.920000000000119     -8.8000000000000558
   131   1      5.2611707411128963      28.160000000000139     -8.8000000000000558
   132   1      5.2611707411430464      29.920000000030271                  -10.56
   133   1      3.5011707411127784                   28.16     -7.0400000000000009
   134   1      3.5011707411127784      29.920000000000002     -5.2800000000000002
   135   1      5.2611707411127782                   28.16     -5.2800000000000002
   136   1      5.2611707411192619      29.920000000006482     -7.0400000000043166
   137   1      3.5011707411127784                   28.16     -3.5200000000000005
   138   1      3.5011707411127784      29.920000000000002     -1.7599999999999998
   139   1      5.2611707411127782                   28.16     -1.7599999999999998
   140   1      5.2611707411127782      29.920000000000002     -3.5199999999999996
   141   1      3.5011707411127784                   28.16                       0
   142   1      3.5011707411127784      29.920000000000002      1.7599999999999998
   143   1      5.2611707411127782                   28.16      1.7599999999999998
   144   1      5.2611707411127782      29.920000000000002                       0
   145   1      3.5011707411127784                   28.16      3.5199999999999996
   146   1      3.5011707411127784      29.920000000000002      5.2800000000000011
   147   1      5.2611707411127782                   28.16      5.2800000000000011
   148   1      5.2611707411127782      29.920000000000002      3.5199999999999996
   149   1      3.5011707411127784                   28.16      7.0399999999999974
   150   1      3.5011707411129134      29.920000000000119      8.8000000000000558
   151   1      5.2611707411128963      28.160000000000139      8.8000000000000558
   152   1      5.2611707411192619      29.920000000006485      7.0400000000043139
   153   1      3.5011707411127784      28.160000000000004                   10.56
   154   1      3.5011707411132043      29.920000000000368      12.320000000000062
   155   1      5.2611707411131441      28.160000000000426      12.320000000000062
   156   1      5.2611707411430464      29.920000000030271      10.560000000008801
   157   1      3.5011707411127797      28.160000000000004      14.079999999999997
   158   1      3.5011707411132043      29.920000000000368      15.839999999999938
   159   1      5.2611707411131441       28.16000000000043      15.839999999999938
   160   1      5.2611707411589785      29.920000000046201      14.079999999999997
   161   1      3.5011707411360105      31.680000000017039                  -10.56
   162   1      3.5011707413956983      33.440000000163188     -8.8000000001231324
   163   1      5.2611707416417648      31.680000000449759     -8.8000000002707015
   164   1      5.2611707504987422       33.44000000581137                  -10.56
   165   1      3.5011707411178672      31.680000000003751     -7.0400000000029435
   166   1      3.5011707411178672      33.440000000002946     -5.2800000000037528
   167   1      5.2611707411250261      31.680000000010381     -5.2800000000103822
   168   1      5.2611707421516627      33.440000000710604     -7.0400000007106023
   169   1      3.5011707411127784                   31.68     -3.5199999999999996
   170   1      3.5011707411127784      33.440000000000005     -1.7599999999999998
   171   1      5.2611707411127782                   31.68     -1.7599999999999998
   172   1      5.2611707411192619      33.440000000004318     -3.5200000000064833
   173   1      3.5011707411127784                   31.68                       0
   174   1      3.5011707411127784      33.440000000000005      1.7599999999999998
   175   1      5.2611707411127782                   31.68      1.7599999999999998
   176   1      5.2611707411127782      33.440000000000005                       0
   177   1      3.5011707411127784                   31.68      3.5199999999999996
   178   1      3.5011707411178672      33.440000000002946      5.2800000000037528
   179   1      5.2611707411250261      31.680000000010381      5.2800000000103839
   180   1      5.2611707411192619      33.440000000004318      3.5200000000064833
   181   1      3.5011707411178676      31.680000000003751      7.0400000000029426
   182   1      3.5011707413956987      33.440000000163188      8.8000000001231324
   183   1      5.2611707416417648      31.680000000449759      8.8000000002707015
   184   1      5.2611707421516636      33.440000000710604      7.0400000007106005
   185   1      3.5011707411360105      31.680000000017039      10.560000000005749
   186   1      3.5011707418676203      33.440000000437934      12.320000000075902
   187   1      5.2611707424604317       31.68000000114413       12.32000000015495
   188   1      5.2611707504987422       33.44000000581137      10.560000003301491
   189   1      3.5011707411483477      31.680000000025785      14.079999999999997
   190   1      3.5011707418676203      33.440000000437934      15.839999999924098
   191   1      5.2611707424604317       31.68000000114413       15.83999999984505
   192   1      5.2611707557904435      33.440000009105496      14.079999999999997
   193   1      3.5011707457627721      35.200000001937497                  -10.56
   194   1      3.5011707457627725      36.960000001229091     -8.8000000019375015
   195   1      5.2611707478462693      35.200000003143231     -8.8000000031432339
   196   1       5.261170725318868      36.960000020496302                  -10.56
   197   1      3.5011707413956987      35.200000000123133     -7.0400000001631842
   198   1      3.5011707411360105      36.960000000005749     -5.2800000000170417
   199   1      5.2611707416417648      35.200000000270698     -5.2800000004497614
   200   1      5.2611707504987422      36.960000003301495     -7.0400000058113683
   201   1      3.5011707411129134      35.200000000000053     -3.5200000000001186
   202   1      3.5011707411127788      36.960000000000001     -1.7600000000000016
   203   1      5.2611707411128963      35.200000000000053     -1.7600000000001366
   204   1      5.2611707411430464      36.960000000008804     -3.5200000000302687
   205   1      3.5011707411127784      35.199999999999996                       0
   206   1      3.5011707411127788      36.960000000000001      1.7600000000000016
   207   1      5.2611707411128963      35.200000000000053      1.7600000000001366
   208   1       5.261170741112779      36.960000000000001                       0
   209   1      3.5011707411129134      35.200000000000053      3.5200000000001186
   210   1      3.5011707411360105      36.960000000005749      5.2800000000170417
   211   1      5.2611707416417648      35.200000000270698      5.2800000004497623
   212   1      5.2611707411430464      36.960000000008804      3.5200000000302687
   213   1      3.5011707413956992      35.200000000123133      7.0400000001631842
   214   1      3.5011707457627725      36.960000001229091      8.8000000019375033
   215   1      5.2611707478462693      35.200000003143231      8.8000000031432339
   216   1      5.2611707504987422      36.960000003301495      7.0400000058113665
   217   1      3.5011707457627725      35.200000001937497      10.560000001229087
   218   1      3.5011707747957725      36.960000009722791      12.320000004612114
   219   1      5.2611707780913566      35.200000006305721      12.320000012775827
   220   1       5.261170725318868      36.960000020496302      10.560000020496295
   221   1      3.5011707492129802       35.20000000356324      14.079999999999997
   222   1      3.5011707747957725      36.960000009722791      15.839999995387886
   223   1      5.2611707780913566      35.200000006305721      15.839999987224173
   224   1      5.2611707569726303      36.959999975848405      14.079999999999997
   225   1      3.5011707747957721       38.72000000461211                  -10.56
   226   1      3.5011707492129802      40.480000000000004     -8.8000000035632411
   227   1      5.2611707780913566      38.720000012775827     -8.8000000063057211
   228   1      5.2611707569726303      40.480000000000004     -10.559999975848408
   229   1      3.5011707418676199      38.720000000075899     -7.0400000004379306
   230   1      3.5011707411483477      40.480000000000004     -5.2800000000257832
   231   1      5.2611707424604317      38.720000000154947     -5.2800000011441321
   232   1      5.2611707557904435      40.480000000000004     -7.0400000091054924
   233   1      3.5011707411132043      38.720000000000063     -3.5200000000003655
   234   1      3.5011707411127801      40.480000000000004     -1.7600000000000033
   235   1      5.2611707411131441      38.720000000000063     -1.7600000000004261
   236   1      5.2611707411589785      40.480000000000004        -3.5200000000462
   237   1      3.5011707411127784      38.719999999999999                       0
   238   1      3.5011707411127801      40.480000000000004      1.7600000000000016
   239   1      5.2611707411131441      38.720000000000056      1.7600000000004261
   240   1      5.2611707411127799      40.480000000000004                       0
   241   1      3.5011707411132043      38.720000000000063      3.5200000000003655
   242   1      3.5011707411483477      40.480000000000004      5.2800000000257832
   243   1      5.2611707424604317      38.720000000154947       5.280000001144133
   244   1      5.2611707411589776      40.480000000000004      3.5200000000461991
   245   1      3.5011707418676208      38.720000000075899      7.0400000004379297
   246   1      3.5011707492129802      40.480000000000004      8.8000000035632429
   247   1      5.2611707780913566      38.720000012775827      8.8000000063057211
   248   1      5.2611707557904435      40.480000000000004      7.0400000091054924
   249   1      3.5011707747957721       38.72000000461211       10.56000000972279
   250   1      3.5011708520193734      40.480000000000004      12.320000016883396
   251   1      5.2611706165777088      38.720000095087272      12.320000095087275
   252   1      5.2611707569726303      40.480000000000004      10.559999975848404
   253   1      3.5011708520193734      38.720000016883397      14.079999999999997
   254   1      3.5011708520193734      40.480000000000004      15.839999983116604
   255   1      5.2611706165777088      38.720000095087272      15.839999904912725
   256   1      5.2611704357097979      40.480000000000004      14.079999999999997
   257   1      7.0211698785692107                   14.08                  -10.56
   258   1      7.0211704315755004      15.839999996641716     -8.7999998116829676
   259   1      8.7811950946609461                   14.08     -8.8000250329420453
   260   1      8.7811812487058845        15.8399927403084                  -10.56
   261   1      7.0211706241167757                   14.08     -7.0399998684077882
   262   1      7.0211707502821863      15.839999995638866     -5.2800000091694086
   263   1      8.7811706095205651                   14.08     -5.2799998830039971
   264   1      8.7811702425201865      15.840000002780632     -7.0399995014074079
   265   1      7.0211707422569098                   14.08     -3.5200000013476531
   266   1      7.0211707411298203       15.83999999999425     -1.7600000000232328
   267   1      8.7811707415507101                   14.08     -1.7600000007548431
   268   1      8.7811707469241469      15.839999996698507     -3.5200000093859645
   269   1      7.0211707411129805                   14.08                       0
   270   1      7.0211707411298203       15.83999999999425      1.7600000000232328
   271   1      8.7811707415507101                   14.08      1.7600000007548431
   272   1      8.7811707411193574      15.839999999997293                       0
   273   1      7.0211707422569098                   14.08      3.5200000013476522
   274   1      7.0211707502821863      15.839999995638866      5.2800000091694077
   275   1      8.7811706095205651                   14.08      5.2799998830039971
   276   1      8.7811707469241469      15.839999996698507      3.5200000093859636
   277   1      7.0211706241167757                   14.08      7.0399998684077847
   278   1      7.0211704315755004      15.839999996641716      8.7999998116829676
   279   1      8.7811950946609461                   14.08      8.8000250329420435
   280   1      8.7811702425201865      15.840000002780632      7.0399995014074062
   281   1      7.0211698785692107                   14.08      10.560000549974633
   282   1      7.0211698785692107      15.839999450025365      12.320000259995526
   283   1      8.7813880215813249                   14.08      12.320066442041297
   284   1      8.7811812487058845        15.8399927403084        10.5600072596916
   285   1      7.0211729087110326                   14.08                   14.08
   286   1      7.0211698785692107      15.839999450025365      15.839999740004474
   287   1      8.7813880215813249                   14.08      15.839933557958704
   288   1      8.7812398850121358      15.839931756256542                   14.08
   289   1      7.0211704315755004      17.600000188317033                  -10.56
   290   1      7.0211707423508356       19.36000000094861     -8.8000000011169401
   291   1      8.7811701935063198      17.600000312720898     -8.7999996872791026
   292   1      8.7811702425201865      19.360000498592591      -10.55999999721937
   293   1      7.0211707423508356       17.59999999888306     -7.0399999990513891
   294   1      7.0211707424517122      19.359999998919754     -5.2800000013389337
   295   1      8.7811707401641677       17.59999999888306      -5.280000001238057
   296   1      8.7811707326033748      19.360000008509406     -7.0399999914905953
   297   1      7.0211707415625391      17.599999999729299     -3.5200000005289871
   298   1      7.0211707411165314      19.359999999997058     -1.7600000000050908
   299   1      8.7811707412759628      17.599999999876868     -1.7600000002829219
   300   1      8.7811707418233809        19.3599999992894      -3.520000001038885
   301   1       7.021170741112849      17.599999999999962                       0
   302   1      7.0211707411165314      19.359999999997058      1.7600000000050908
   303   1      8.7811707412759628      17.599999999876868      1.7600000002829219
   304   1       8.781170741114348      19.359999999998433                       0
   305   1        7.02117074156254      17.599999999729299      3.5200000005289862
   306   1      7.0211707424517122      19.359999998919754      5.2800000013389337
   307   1      8.7811707401641677       17.59999999888306      5.2800000012380579
   308   1      8.7811707418233809        19.3599999992894      3.5200000010388841
   309   1      7.0211707423508356       17.59999999888306      7.0399999990513873
   310   1      7.0211707423508356       19.36000000094861      8.8000000011169401
   311   1      8.7811701935063198      17.600000312720898      8.7999996872791026
   312   1      8.7811707326033748      19.360000008509406      7.0399999914905944
   313   1      7.0211704315755004      17.600000188317033      10.560000003358285
   314   1      7.0211706241167748      19.360000131592212      12.320000018688189
   315   1      8.7811950946609478      17.599974967057957      12.320000617419742
   316   1      8.7811702425201865      19.360000498592591      10.559999997219366
   317   1      7.0211695614208285      17.600001098745359                   14.08
   318   1      7.0211706241167757      19.360000131592212      15.839999981311815
   319   1      8.7811950946609461      17.599974967057957      15.839999382580258
   320   1      8.7811694305703654      19.360001310542415                   14.08
   321   1      7.0211707502821863      21.119999990830593                  -10.56
   322   1      7.0211707415625391      22.879999999471014     -8.8000000002707015
   323   1      8.7811707401641677      21.119999998761944     -8.8000000011169401
   324   1      8.7811707469241469      22.879999990614039                  -10.56
   325   1      7.0211707424517122      21.119999998661068     -7.0400000010802462
   326   1      7.0211707411231608      22.879999999987753     -5.2800000000103831
   327   1       8.781170742193023      21.119999998661065     -5.2800000013389337
   328   1      8.7811707418233809      22.879999998961118     -7.0400000007106023
   329   1      7.0211707411231608      21.119999999989616     -3.5200000000122476
   330   1      7.0211707411127788      22.880000000000003     -1.7599999999999998
   331   1      8.7811707411157229      21.119999999996249     -1.7600000000050908
   332   1      8.7811707411170943      22.879999999993515     -3.5200000000064833
   333   1      7.0211707411127779      21.120000000000001                       0
   334   1      7.0211707411127779      22.880000000000003      1.7599999999999998
   335   1      8.7811707411157229      21.119999999996249      1.7600000000050908
   336   1      8.7811707411127777      22.880000000000003                       0
   337   1      7.0211707411231608      21.119999999989616      3.5200000000122476
   338   1      7.0211707411231608      22.879999999987753      5.2800000000103839
   339   1       8.781170742193023      21.119999998661065      5.2800000013389337
   340   1      8.7811707411170943      22.879999999993515      3.5200000000064833
   341   1      7.0211707424517122      21.119999998661068      7.0400000010802462
   342   1      7.0211707415625391      22.879999999471014      8.8000000002707015
   343   1      8.7811707401641677      21.119999998761944      8.8000000011169401
   344   1      8.7811707418233809      22.879999998961114      7.0400000007106005
   345   1      7.0211707502821863      21.119999990830593      10.560000004361131
   346   1      7.0211707422569098      22.879999998652345       12.32000000015495
   347   1      8.7811706095205651      21.120000116996003      12.320000018688189
   348   1      8.7811707469241469      22.879999990614035      10.560000003301491
   349   1      7.0211707531611669      21.119999987951612      14.079999999999997
   350   1      7.0211707422569098      22.879999998652345       15.83999999984505
   351   1      8.7811706095205651      21.120000116996003      15.839999981311815
   352   1      8.7811707502182692      22.879999985322335      14.079999999999997
   353   1      7.0211707411298203      24.639999999976766                  -10.56
   354   1       7.021170741112849      26.399999999999999      -8.800000000000038
   355   1      8.7811707412759628      24.639999999717077     -8.8000000001231342
   356   1      8.7811707411193574      26.399999999999999                  -10.56
   357   1      7.0211707411165314       24.63999999999491     -7.0400000000029435
   358   1      7.0211707411127779      26.399999999999999     -5.2800000000000002