LAMMPS (29 Aug 2024 - Update 1)
units metal
atom_style atomic
dimension 3
boundary p p p
read_data initial_config_minimization.lmp
Reading data file ...
  orthogonal box = (0 0 0) to (28.16 28.16 28.16)
  1 by 1 by 1 MPI processor grid
  reading atoms ...
  2047 atoms
  read_data CPU = 0.004 seconds
pair_style eam/alloy
pair_coeff * * ./Ni_v6_2.0_LKBeland2016.eam Ni
min_style cg
minimize 1e-06 1e-08 1000 1000

CITE-CITE-CITE-CITE-CITE-CITE-CITE-CITE-CITE-CITE-CITE-CITE-CITE

Your simulation uses code contributions which should be cited:

- Type Label Framework: https://doi.org/10.1021/acs.jpcb.3c08419

@Article{Gissinger24,
 author = {Jacob R. Gissinger, Ilia Nikiforov, Yaser Afshar, Brendon Waters, Moon-ki Choi, Daniel S. Karls, Alexander Stukowski, Wonpil Im, Hendrik Heinz, Axel Kohlmeyer, and Ellad B. Tadmor},
 title = {Type Label Framework for Bonded Force Fields in LAMMPS},
 journal = {J. Phys. Chem. B},
 year =    2024,
 volume =  128,
 number =  13,
 pages =   {3282–-3297}
}

CITE-CITE-CITE-CITE-CITE-CITE-CITE-CITE-CITE-CITE-CITE-CITE-CITE

Neighbor list info ...
  update: every = 1 steps, delay = 0 steps, check = yes
  max neighbors/atom: 2000, page size: 100000
  master list distance cutoff = 8.5
  ghost atom cutoff = 8.5
  binsize = 4.25, bins = 7 7 7
  1 neighbor lists, perpetual/occasional/extra = 1 0 0
  (1) pair eam/alloy, perpetual
      attributes: half, newton on
      pair build: half/bin/atomonly/newton
      stencil: half/bin/3d
      bin: standard
Per MPI rank memory allocation (min/avg/max) = 5.466 | 5.466 | 5.466 Mbytes
   Step          Temp          E_pair         E_mol          TotEng         Press     
         0   0             -9107.5785      0             -9107.5785     -157.15009    
         1   0             -9107.5785      0             -9107.5785     -157.16263    
Loop time of 0.010654 on 1 procs for 1 steps with 2047 atoms

100.0% CPU use with 1 MPI tasks x no OpenMP threads

Minimization stats:
  Stopping criterion = energy tolerance
  Energy initial, next-to-last, final = 
     -9107.57847587583  -9107.57847587583  -9107.57848967608
  Force two-norm initial, final = 0.018126673 0.015865698
  Force max component initial, final = 0.0017655907 0.001559029
  Final line search alpha, max atom move = 1 0.001559029
  Iterations, force evaluations = 1 2

MPI task timing breakdown:
Section |  min time  |  avg time  |  max time  |%varavg| %total
---------------------------------------------------------------
Pair    | 0.010511   | 0.010511   | 0.010511   |   0.0 | 98.66
Neigh   | 0          | 0          | 0          |   0.0 |  0.00
Comm    | 5.5918e-05 | 5.5918e-05 | 5.5918e-05 |   0.0 |  0.52
Output  | 0          | 0          | 0          |   0.0 |  0.00
Modify  | 0          | 0          | 0          |   0.0 |  0.00
Other   |            | 8.733e-05  |            |       |  0.82

Nlocal:           2047 ave        2047 max        2047 min
Histogram: 1 0 0 0 0 0 0 0 0 0
Nghost:           5765 ave        5765 max        5765 min
Histogram: 1 0 0 0 0 0 0 0 0 0
Neighs:         229152 ave      229152 max      229152 min
Histogram: 1 0 0 0 0 0 0 0 0 0

Total # of neighbors = 229152
Ave neighs/atom = 111.94529
Neighbor list builds = 0
Dangerous builds = 0
Total wall time: 0:00:00
