2047
Lattice="28.172821552885672 0.0 0.0 0.0 28.172821552885672 0.0 0.0 0.0 28.172821552885672" Properties=species:S:1:pos:R:3:masses:R:1:momenta:R:3:id:I:1:type:I:1 comment="LAMMPS data file via write_data, version 22 Jul 2025, timestep = 18, units = metal" pbc="T T T"
Ni       0.01377431       0.01112926       0.01084757      58.70000002       0.00000000       0.00000000       0.00000000        1        1
Ni       0.01069479       1.76903407       1.77460728      58.70000002       0.00000000       0.00000000       0.00000000        2        1
Ni       1.77331705       0.01157515       1.77457458      58.70000002       0.00000000       0.00000000       0.00000000        3        1
Ni       1.76925956       1.77148973       0.00925181      58.70000002       0.00000000       0.00000000       0.00000000        4        1
Ni       0.01272813       0.01306175       3.53778823      58.70000002       0.00000000       0.00000000       0.00000000        5        1
Ni       0.00991643       1.77005314       5.29992465      58.70000002       0.00000000       0.00000000       0.00000000        6        1
Ni       1.77653129       0.00838123       5.29145794      58.70000002       0.00000000       0.00000000       0.00000000        7        1
Ni       1.77048624       1.76974747       3.53438511      58.70000002       0.00000000       0.00000000       0.00000000        8        1
Ni       0.01059320       0.00987375       7.05076133      58.70000002       0.00000000       0.00000000       0.00000000        9        1
Fe       0.00984920       1.77082155       8.81329839      55.80000001       0.00000000       0.00000000       0.00000000       10        2
Ni       1.77189927       0.01082532       8.81163354      58.70000002       0.00000000       0.00000000       0.00000000       11        1
Ni       1.77192715       1.77060587       7.05234420      58.70000002       0.00000000       0.00000000       0.00000000       12        1
Ni       0.01059177       0.01031064      10.57423394      58.70000002       0.00000000       0.00000000       0.00000000       13        1
Ni       0.00872129       1.77005833      12.33007870      58.70000002       0.00000000       0.00000000       0.00000000       14        1
Ni       1.76953002       0.01096515      12.33905691      58.70000002       0.00000000       0.00000000       0.00000000       15        1
Ni       1.76876442       1.77137037      10.57642969      58.70000002       0.00000000       0.00000000       0.00000000       16        1
Ni       0.00347714       0.00891671      14.09436028      58.70000002       0.00000000       0.00000000       0.00000000       17        1
Ni       0.00965123       1.77495543      15.85565804      58.70000002       0.00000000       0.00000000       0.00000000       18        1
Ni       1.76674696       0.01060801      15.85235598      58.70000002       0.00000000       0.00000000       0.00000000       19        1
Ni       1.76787171       1.77151840      14.10035276      58.70000002       0.00000000       0.00000000       0.00000000       20        1
Ni       0.00906743       0.00812071      17.61483910      58.70000002       0.00000000       0.00000000       0.00000000       21        1
Ni       0.01250048       1.76867809      19.37715707      58.70000002       0.00000000       0.00000000       0.00000000       22        1
Ni       1.76546262       0.00961409      19.37773907      58.70000002       0.00000000       0.00000000       0.00000000       23        1
Fe       1.77450732       1.76918514      17.61299706      55.80000001       0.00000000       0.00000000       0.00000000       24        2
Ni       0.00887213       0.01406735      21.14369303      58.70000002       0.00000000       0.00000000       0.00000000       25        1
Ni       0.01496165       1.76686814      22.89915138      58.70000002       0.00000000       0.00000000       0.00000000       26        1
Ni       1.77609329       0.00641313      22.90089215      58.70000002       0.00000000       0.00000000       0.00000000       27        1
Ni       1.77547835       1.76897632      21.13367223      58.70000002       0.00000000       0.00000000       0.00000000       28        1
Ni       0.01234545       0.00636993      24.65527447      58.70000002       0.00000000       0.00000000       0.00000000       29        1
Ni       0.01001449       1.77178371      26.41826183      58.70000002       0.00000000       0.00000000       0.00000000       30        1
Ni       1.77329028       0.01244415      26.41986211      58.70000002       0.00000000       0.00000000       0.00000000       31        1
Ni       1.77323181       1.76784125      24.66220276      58.70000002       0.00000000       0.00000000       0.00000000       32        1
Ni       0.01162798       3.52556830       0.01295057      58.70000002       0.00000000       0.00000000       0.00000000       33        1
Ni       0.00523726       5.28669734       1.77382002      58.70000002       0.00000000       0.00000000       0.00000000       34        1
Ni       1.76791270       3.53132715       1.77307218      58.70000002       0.00000000       0.00000000       0.00000000       35        1
Ni       1.76465463       5.29421752       0.01124034      58.70000002       0.00000000       0.00000000       0.00000000       36        1
Ni       0.00804699       3.52854385       3.53495574      58.70000002       0.00000000       0.00000000       0.00000000       37        1
Ni       0.00991038       5.29247722       5.29330607      58.70000002       0.00000000       0.00000000       0.00000000       38        1
Ni       1.76910825       3.53295832       5.28903763      58.70000002       0.00000000       0.00000000       0.00000000       39        1
Ni       1.76669930       5.29471691       3.53004342      58.70000002       0.00000000       0.00000000       0.00000000       40        1
Ni       0.01125449       3.53219516       7.05260174      58.70000002       0.00000000       0.00000000       0.00000000       41        1
Ni       0.01150637       5.28497854       8.81331291      58.70000002       0.00000000       0.00000000       0.00000000       42        1
Ni       1.76821574       3.53065333       8.81584408      58.70000002       0.00000000       0.00000000       0.00000000       43        1
Ni       1.77746051       5.29345573       7.05225408      58.70000002       0.00000000       0.00000000       0.00000000       44        1
Ni       0.00949525       3.53356607      10.57661760      58.70000002       0.00000000       0.00000000       0.00000000       45        1
Ni       0.01008948       5.30092693      12.33703975      58.70000002       0.00000000       0.00000000       0.00000000       46        1
Ni       1.77029947       3.53324688      12.33914734      58.70000002       0.00000000       0.00000000       0.00000000       47        1
Ni       1.77264847       5.29181315      10.57698376      58.70000002       0.00000000       0.00000000       0.00000000       48        1
Ni       0.00827888       3.53218418      14.08984686      58.70000002       0.00000000       0.00000000       0.00000000       49        1
Ni       0.00094700       5.29133501      15.85798286      58.70000002       0.00000000       0.00000000       0.00000000       50        1
Ni       1.77057889       3.53103176      15.85491609      58.70000002       0.00000000       0.00000000       0.00000000       51        1
Ni       1.77142172       5.29006051      14.09732635      58.70000002       0.00000000       0.00000000       0.00000000       52        1
Ni       0.01475536       3.53633454      17.62376588      58.70000002       0.00000000       0.00000000       0.00000000       53        1
Ni       0.00862148       5.29235884      19.38111330      58.70000002       0.00000000       0.00000000       0.00000000       54        1
Ni       1.77694982       3.52844184      19.37816087      58.70000002       0.00000000       0.00000000       0.00000000       55        1
Ni       1.77279216       5.28689939      17.61392291      58.70000002       0.00000000       0.00000000       0.00000000       56        1
Fe       0.01050235       3.53053747      21.14098528      55.80000001       0.00000000       0.00000000       0.00000000       57        2
Ni       0.00827279       5.29242115      22.89347812      58.70000002       0.00000000       0.00000000       0.00000000       58        1
Ni       1.77691439       3.52752878      22.89718915      58.70000002       0.00000000       0.00000000       0.00000000       59        1
Ni       1.76782254       5.29324904      21.14003942      58.70000002       0.00000000       0.00000000       0.00000000       60        1
Ni       0.01388100       3.52865790      24.64925749      58.70000002       0.00000000       0.00000000       0.00000000       61        1
Ni       0.01256083       5.28841584      26.41712410      58.70000002       0.00000000       0.00000000       0.00000000       62        1
Ni       1.77743503       3.53539463      26.42044664      58.70000002       0.00000000       0.00000000       0.00000000       63        1
Ni       1.76425523       5.29636283      24.65908284      58.70000002       0.00000000       0.00000000       0.00000000       64        1
Ni      -0.00148052       7.05080843       0.01307182      58.70000002       0.00000000       0.00000000       0.00000000       65        1
Ni       0.00324774       8.81408766       1.77583034      58.70000002       0.00000000       0.00000000       0.00000000       66        1
Ni       1.76204766       7.05002990       1.76458759      58.70000002       0.00000000       0.00000000       0.00000000       67        1
Ni       1.76360080       8.81103572       0.01322255      58.70000002       0.00000000       0.00000000       0.00000000       68        1
Ni       0.00636722       7.05161642       3.53098638      58.70000002       0.00000000       0.00000000       0.00000000       69        1
Ni       0.00809372       8.81243931       5.29516666      58.70000002       0.00000000       0.00000000       0.00000000       70        1
Ni       1.76504939       7.05365748       5.29276413      58.70000002       0.00000000       0.00000000       0.00000000       71        1
Ni       1.76617586       8.81387805       3.52852348      58.70000002       0.00000000       0.00000000       0.00000000       72        1
Ni       0.01116555       7.05082261       7.05737595      58.70000002       0.00000000       0.00000000       0.00000000       73        1
Ni       0.01006870       8.81383137       8.82128386      58.70000002       0.00000000       0.00000000       0.00000000       74        1
Ni       1.77182394       7.05191080       8.81473245      58.70000002       0.00000000       0.00000000       0.00000000       75        1
Ni       1.77076299       8.81347312       7.05845058      58.70000002       0.00000000       0.00000000       0.00000000       76        1
Ni       0.01103232       7.05145413      10.57356608      58.70000002       0.00000000       0.00000000       0.00000000       77        1
Fe       0.01088048       8.81474446      12.33535614      55.80000001       0.00000000       0.00000000       0.00000000       78        2
Ni       1.76987628       7.05415088      12.33853764      58.70000002       0.00000000       0.00000000       0.00000000       79        1
Ni       1.77191572       8.81523622      10.57412904      58.70000002       0.00000000       0.00000000       0.00000000       80        1
Ni       0.01124902       7.05478769      14.10178455      58.70000002       0.00000000       0.00000000       0.00000000       81        1
Ni       0.01081692       8.81612498      15.84873702      58.70000002       0.00000000       0.00000000       0.00000000       82        1
Ni       1.77201275       7.05009390      15.85726972      58.70000002       0.00000000       0.00000000       0.00000000       83        1
Ni       1.77253079       8.81728773      14.09569429      58.70000002       0.00000000       0.00000000       0.00000000       84        1
Fe       0.01405579       7.05509894      17.61517477      55.80000001       0.00000000       0.00000000       0.00000000       85        2
Ni       0.01431464       8.81554230      19.37732349      58.70000002       0.00000000       0.00000000       0.00000000       86        1
Ni       1.77598113       7.05587714      19.37290130      58.70000002       0.00000000       0.00000000       0.00000000       87        1
Ni       1.77262010       8.81694662      17.61290057      58.70000002       0.00000000       0.00000000       0.00000000       88        1
Ni       0.01293593       7.04895819      21.13061024      58.70000002       0.00000000       0.00000000       0.00000000       89        1
Ni       0.01066151       8.81526842      22.89136708      58.70000002       0.00000000       0.00000000       0.00000000       90        1
Ni       1.77414464       7.05893725      22.90219908      58.70000002       0.00000000       0.00000000       0.00000000       91        1
Ni       1.77339811       8.81617399      21.14027399      58.70000002       0.00000000       0.00000000       0.00000000       92        1
Ni       0.01040797       7.05501269      24.65870723      58.70000002       0.00000000       0.00000000       0.00000000       93        1
Ni       0.01165489       8.81863703      26.42242817      58.70000002       0.00000000       0.00000000       0.00000000       94        1
Fe       1.76757731       7.06060653      26.42418935      55.80000001       0.00000000       0.00000000       0.00000000       95        2
Ni       1.77126070       8.81715247      24.65822072      58.70000002       0.00000000       0.00000000       0.00000000       96        1
Ni       0.00785767      10.57693134       0.01283983      58.70000002       0.00000000       0.00000000       0.00000000       97        1
Ni       0.00407430      12.33953708       1.77317363      58.70000002       0.00000000       0.00000000       0.00000000       98        1
Ni       1.76888051      10.57679830       1.76552910      58.70000002       0.00000000       0.00000000       0.00000000       99        1
Ni       1.76592205      12.33608614       0.01262750      58.70000002       0.00000000       0.00000000       0.00000000      100        1
Ni       0.01655401      10.57613516       3.53248861      58.70000002       0.00000000       0.00000000       0.00000000      101        1
Ni       0.00849622      12.33587108       5.29394391      58.70000002       0.00000000       0.00000000       0.00000000      102        1
Ni       1.77028826      10.57388498       5.29416821      58.70000002       0.00000000       0.00000000       0.00000000      103        1
Ni       1.76889979      12.33596917       3.52802522      58.70000002       0.00000000       0.00000000       0.00000000      104        1
Ni       0.00928082      10.57286313       7.05605200      58.70000002       0.00000000       0.00000000       0.00000000      105        1
Ni       0.00954452      12.33422516       8.81337446      58.70000002       0.00000000       0.00000000       0.00000000      106        1
Ni       1.77581408      10.57520333       8.81015820      58.70000002       0.00000000       0.00000000       0.00000000      107        1
Ni       1.76949258      12.33472256       7.05429383      58.70000002       0.00000000       0.00000000       0.00000000      108        1
Ni       0.01023065      10.57546698      10.57395228      58.70000002       0.00000000       0.00000000       0.00000000      109        1
Ni       0.00836856      12.32985124      12.33600908      58.70000002       0.00000000       0.00000000       0.00000000      110        1
Ni       1.77013963      10.57688350      12.33637804      58.70000002       0.00000000       0.00000000       0.00000000      111        1
Ni       1.77049448      12.33712482      10.57449332      58.70000002       0.00000000       0.00000000       0.00000000      112        1
Ni       0.00850438      10.57746504      14.09549912      58.70000002       0.00000000       0.00000000       0.00000000      113        1
Ni       0.00821562      12.33507323      15.85691573      58.70000002       0.00000000       0.00000000       0.00000000      114        1
Ni       1.77435747      10.58031292      15.85591694      58.70000002       0.00000000       0.00000000       0.00000000      115        1
Ni       1.77152939      12.33884112      14.09722253      58.70000002       0.00000000       0.00000000       0.00000000      116        1
Ni       0.01073687      10.56899109      17.61424750      58.70000002       0.00000000       0.00000000       0.00000000      117        1
Ni       0.00812413      12.33247089      19.37813505      58.70000002       0.00000000       0.00000000       0.00000000      118        1
Ni       1.77273564      10.57702839      19.37815589      58.70000002       0.00000000       0.00000000       0.00000000      119        1
Ni       1.76976571      12.33464924      17.61809008      58.70000002       0.00000000       0.00000000       0.00000000      120        1
Ni       0.00868137      10.57452448      21.13853280      58.70000002       0.00000000       0.00000000       0.00000000      121        1
Ni       0.00443290      12.33540791      22.89347466      58.70000002       0.00000000       0.00000000       0.00000000      122        1
Ni       1.77137746      10.57658535      22.90190931      58.70000002       0.00000000       0.00000000       0.00000000      123        1
Ni       1.77009363      12.33404191      21.13889171      58.70000002       0.00000000       0.00000000       0.00000000      124        1
Ni       0.01072972      10.57464429      24.65779590      58.70000002       0.00000000       0.00000000       0.00000000      125        1
Ni       0.01019256      12.33102327      26.42266569      58.70000002       0.00000000       0.00000000       0.00000000      126        1
Fe       1.77575983      10.56913068      26.42517037      55.80000001       0.00000000       0.00000000       0.00000000      127        2
Ni       1.76899314      12.33542567      24.65789828      58.70000002       0.00000000       0.00000000       0.00000000      128        1
Ni       0.00466675      14.09751562       0.01203060      58.70000002       0.00000000       0.00000000       0.00000000      129        1
Ni       0.00666688      15.85668174       1.77170254      58.70000002       0.00000000       0.00000000       0.00000000      130        1
Ni       1.76789959      14.09850764       1.76803536      58.70000002       0.00000000       0.00000000       0.00000000      131        1
Ni       1.76479104      15.85749893       0.01028362      58.70000002       0.00000000       0.00000000       0.00000000      132        1
Ni       0.00730198      14.09720341       3.53180183      58.70000002       0.00000000       0.00000000       0.00000000      133        1
Ni       0.01008508      15.85731319       5.29249005      58.70000002       0.00000000       0.00000000       0.00000000      134        1
Ni       1.76544170      14.09760247       5.29198789      58.70000002       0.00000000       0.00000000       0.00000000      135        1
Ni       1.76820387      15.85628296       3.53024716      58.70000002       0.00000000       0.00000000       0.00000000      136        1
Ni       0.01108863      14.09657689       7.05261046      58.70000002       0.00000000       0.00000000       0.00000000      137        1
Ni       0.01026127      15.85319648       8.81152173      58.70000002       0.00000000       0.00000000       0.00000000      138        1
Ni       1.76756085      14.09409989       8.81440581      58.70000002       0.00000000       0.00000000       0.00000000      139        1
Ni       1.77638633      15.85873097       7.05276445      58.70000002       0.00000000       0.00000000       0.00000000      140        1
Ni       0.00770505      14.09165224      10.57538919      58.70000002       0.00000000       0.00000000       0.00000000      141        1
Ni       0.00723857      15.85070575      12.33357430      58.70000002       0.00000000       0.00000000       0.00000000      142        1
Ni       1.76899780      14.09675840      12.33739349      58.70000002       0.00000000       0.00000000       0.00000000      143        1
Ni       1.76737280      15.85103754      10.57380421      58.70000002       0.00000000       0.00000000       0.00000000      144        1
Ni       0.00673443      14.09546287      14.09564187      58.70000002       0.00000000       0.00000000       0.00000000      145        1
Ni       0.00824044      15.84995562      15.85963379      58.70000002       0.00000000       0.00000000       0.00000000      146        1
Ni       1.76983706      14.09519722      15.85608469      58.70000002       0.00000000       0.00000000       0.00000000      147        1
Ni       1.76820098      15.85965093      14.09758555      58.70000002       0.00000000       0.00000000       0.00000000      148        1
Ni       0.00898642      14.09283019      17.61808430      58.70000002       0.00000000       0.00000000       0.00000000      149        1
Ni       0.00808125      15.85390633      19.37701259      58.70000002       0.00000000       0.00000000       0.00000000      150        1
Ni       1.76969247      14.09559063      19.38095661      58.70000002       0.00000000       0.00000000       0.00000000      151        1
Ni       1.76991349      15.85201305      17.61787392      58.70000002       0.00000000       0.00000000       0.00000000      152        1
Ni       0.00759133      14.09658379      21.13741223      58.70000002       0.00000000       0.00000000       0.00000000      153        1
Ni       0.00431083      15.85830528      22.89986223      58.70000002       0.00000000       0.00000000       0.00000000      154        1
Ni       1.76872458      14.09789321      22.89692600      58.70000002       0.00000000       0.00000000       0.00000000      155        1
Ni       1.76703841      15.86527956      21.13650398      58.70000002       0.00000000       0.00000000       0.00000000      156        1
Ni       0.01238845      14.09792712      24.65842016      58.70000002       0.00000000       0.00000000       0.00000000      157        1
Ni       0.00493119      15.85752053      26.42192541      58.70000002       0.00000000       0.00000000       0.00000000      158        1
Ni       1.76579724      14.08989680      26.42200699      58.70000002       0.00000000       0.00000000       0.00000000      159        1
Ni       1.76662510      15.85544935      24.66221326      58.70000002       0.00000000       0.00000000       0.00000000      160        1
Ni       0.00758899      17.61844749       0.01134284      58.70000002       0.00000000       0.00000000       0.00000000      161        1
Ni       0.00567287      19.38108947       1.77196117      58.70000002       0.00000000       0.00000000       0.00000000      162        1
Ni       1.76691757      17.61716497       1.77085060      58.70000002       0.00000000       0.00000000       0.00000000      163        1
Ni       1.76911769      19.37657866       0.01215335      58.70000002       0.00000000       0.00000000       0.00000000      164        1
Ni       0.00548465      17.61853825       3.53038957      58.70000002       0.00000000       0.00000000       0.00000000      165        1
Ni       0.00559024      19.37664308       5.29062571      58.70000002       0.00000000       0.00000000       0.00000000      166        1
Ni       1.76750961      17.61822284       5.28898461      58.70000002       0.00000000       0.00000000       0.00000000      167        1
Ni       1.76912052      19.37648573       3.53010721      58.70000002       0.00000000       0.00000000       0.00000000      168        1
Ni       0.01096174      17.61601029       7.05327254      58.70000002       0.00000000       0.00000000       0.00000000      169        1
Ni       0.00822267      19.37548148       8.81650450      58.70000002       0.00000000       0.00000000       0.00000000      170        1
Ni       1.76555308      17.61465297       8.81671787      58.70000002       0.00000000       0.00000000       0.00000000      171        1
Ni       1.77179885      19.37631251       7.05354772      58.70000002       0.00000000       0.00000000       0.00000000      172        1
Ni       0.00703751      17.60956762      10.57025076      58.70000002       0.00000000       0.00000000       0.00000000      173        1
Ni       0.01507290      19.37551794      12.33329251      58.70000002       0.00000000       0.00000000       0.00000000      174        1
Ni       1.77076276      17.61292604      12.33429610      58.70000002       0.00000000       0.00000000       0.00000000      175        1
Ni       1.76745993      19.37483489      10.58249307      58.70000002       0.00000000       0.00000000       0.00000000      176        1
Ni       0.00767048      17.61524242      14.09899353      58.70000002       0.00000000       0.00000000       0.00000000      177        1
Ni       0.00729740      19.38435568      15.86070703      58.70000002       0.00000000       0.00000000       0.00000000      178        1
Ni       1.76834990      17.61459994      15.86041723      58.70000002       0.00000000       0.00000000       0.00000000      179        1
Fe       1.76435075      19.37453787      14.09417563      55.80000001       0.00000000       0.00000000       0.00000000      180        2
Ni       0.00849020      17.61291700      17.61792433      58.70000002       0.00000000       0.00000000       0.00000000      181        1
Ni       0.01232736      19.37696367      19.37431347      58.70000002       0.00000000       0.00000000       0.00000000      182        1
Ni       1.77116102      17.61629042      19.37396869      58.70000002       0.00000000       0.00000000       0.00000000      183        1
Ni       1.77237955      19.37499245      17.61529614      58.70000002       0.00000000       0.00000000       0.00000000      184        1
Ni       0.00902353      17.61919196      21.13792204      58.70000002       0.00000000       0.00000000       0.00000000      185        1
Ni       0.01065712      19.38424005      22.89822775      58.70000002       0.00000000       0.00000000       0.00000000      186        1
Ni       1.76892367      17.61895750      22.89964281      58.70000002       0.00000000       0.00000000       0.00000000      187        1
Fe       1.77409986      19.37282547      21.13821184      55.80000001       0.00000000       0.00000000       0.00000000      188        2
Ni       0.00457738      17.61968259      24.66099408      58.70000002       0.00000000       0.00000000       0.00000000      189        1
Ni       0.01208993      19.37742966      26.42143867      58.70000002       0.00000000       0.00000000       0.00000000      190        1
Ni       1.76653147      17.61850977      26.42245132      58.70000002       0.00000000       0.00000000       0.00000000      191        1
Ni       1.77462812      19.37230999      24.65452167      58.70000002       0.00000000       0.00000000       0.00000000      192        1
Ni       0.01269292      21.13927802       0.00725360      58.70000002       0.00000000       0.00000000       0.00000000      193        1
Ni       0.01054260      22.89852637       1.76933985      58.70000002       0.00000000       0.00000000       0.00000000      194        1
Ni       1.76982347      21.13730570       1.77227433      58.70000002       0.00000000       0.00000000       0.00000000      195        1
Ni       1.77151489      22.89660537       0.00700125      58.70000002       0.00000000       0.00000000       0.00000000      196        1
Ni       0.00819281      21.13659200       3.53327568      58.70000002       0.00000000       0.00000000       0.00000000      197        1
Ni       0.00906772      22.89930991       5.29393363      58.70000002       0.00000000       0.00000000       0.00000000      198        1
Ni       1.77168089      21.13554055       5.29325882      58.70000002       0.00000000       0.00000000       0.00000000      199        1
Ni       1.76888287      22.89750074       3.53251576      58.70000002       0.00000000       0.00000000       0.00000000      200        1
Ni       0.01704660      21.13766062       7.05357425      58.70000002       0.00000000       0.00000000       0.00000000      201        1
Ni       0.00876754      22.90433842       8.81123798      58.70000002       0.00000000       0.00000000       0.00000000      202        1
Ni       1.76791899      21.13875020       8.81363775      58.70000002       0.00000000       0.00000000       0.00000000      203        1
Ni       1.76960131      22.89993086       7.05258052      58.70000002       0.00000000       0.00000000       0.00000000      204        1
Ni       0.00912182      21.14276071      10.56914363      58.70000002       0.00000000       0.00000000       0.00000000      205        1
Ni       0.00409953      22.90446479      12.33703144      58.70000002       0.00000000       0.00000000       0.00000000      206        1
Ni       1.77062647      21.13834779      12.33044066      58.70000002       0.00000000       0.00000000       0.00000000      207        1
Ni       1.76548634      22.90462523      10.57441919      58.70000002       0.00000000       0.00000000       0.00000000      208        1
Ni       0.00677780      21.13728474      14.09848421      58.70000002       0.00000000       0.00000000       0.00000000      209        1
Fe       0.00500219      22.90043064      15.85987423      55.80000001       0.00000000       0.00000000       0.00000000      210        2
Ni       1.76724935      21.13721226      15.86100641      58.70000002       0.00000000       0.00000000       0.00000000      211        1
Ni       1.76339577      22.89099657      14.09539558      58.70000002       0.00000000       0.00000000       0.00000000      212        1