(written by ASE)

2047 atoms
1 atom types

0.0                   28.16  xlo xhi
0.0                   28.16  ylo yhi
0.0                   28.16  zlo zhi

Masses

     1      58.693399984901454 # Ni

Atoms # atomic

     1   1     -5.2787760182371333                       0      1.7599999999999998
     2   1     -5.2787760182371333      1.7599999999999996      3.5199999999999996
     3   1     -3.5187760182371335                       0      3.5199999999999996
     4   1     -3.5187760182371335      1.7599999999999998      1.7599999999999998
     5   1     -5.2787760182371333                       0      5.2799999999999994
     6   1     -5.2787760182371333      1.7599999999999998                    7.04
     7   1     -3.5187760182371335                       0                    7.04
     8   1     -3.5187760182371335      1.7599999999999996      5.2799999999999994
     9   1     -5.2787760182371333                       0      8.8000000000000007
    10   1     -5.2787760182371333      1.7600000000000009                   10.56
    11   1     -3.5187760182371335                       0                   10.56
    12   1     -3.5187760182371335      1.7599999999999996      8.8000000000000007
    13   1     -5.2787760182371333                       0                   12.32
    14   1     -5.2787760182371333      1.7600000000000022                   14.08
    15   1     -3.5187760182371335                       0                   14.08
    16   1     -3.5187760182371335      1.7599999999999996                   12.32
    17   1     -5.2787760182371333                       0                   15.84
    18   1     -5.2787760182371333      1.7600000000000009      17.600000000000001
    19   1     -3.5187760182371335                       0      17.600000000000001
    20   1     -3.5187760182371335      1.7599999999999996                   15.84
    21   1     -5.2787760182371333                       0      19.359999999999999
    22   1     -5.2787760182371333      1.7599999999999996      21.120000000000005
    23   1     -3.5187760182371335                       0      21.120000000000005
    24   1     -3.5187760182371335      1.7599999999999998      19.359999999999999
    25   1     -5.2787760182371333                       0      22.879999999999995
    26   1     -5.2787760182371333      1.7599999999999996      24.640000000000001
    27   1     -3.5187760182371335                       0      24.640000000000001
    28   1     -3.5187760182371335      1.7599999999999998      22.879999999999995
    29   1     -5.2787760182371333                       0      26.399999999999999
    30   1     -5.2787760182371333      1.7599999999999996      28.160000000000004
    31   1     -3.5187760182371335                       0      28.160000000000004
    32   1     -3.5187760182371335      1.7599999999999998      26.399999999999999
    33   1     -5.2787760182371333                    3.52      1.7599999999999998
    34   1     -5.2787760182371333      5.2800000000000002      3.5199999999999996
    35   1     -3.5187760182371335                    3.52      3.5199999999999996
    36   1     -3.5187760182371335      5.2800000000000002      1.7599999999999998
    37   1     -5.2787760182371333                    3.52      5.2799999999999994
    38   1     -5.2787760182371333      5.2800000000037519      7.0400000000029426
    39   1     -3.5187760182371335      3.5200000000000005                    7.04
    40   1     -3.5187760182371335      5.2800000000000002      5.2800000000000002
    41   1     -5.2787760182371333      3.5200000000001186      8.8000000000000558
    42   1     -5.2787760182371333      5.2800000000170417      10.560000000005751
    43   1     -3.5187760182371335      3.5200000000000014                   10.56
    44   1     -3.5187760182371335      5.2800000000000704      8.8000000000000362
    45   1     -5.2787760182371333      3.5200000000003659      12.320000000000061
    46   1     -5.2787760182371333      5.2800000000257841                   14.08
    47   1     -3.5187760182371335      3.5200000000000022                   14.08
    48   1     -3.5187760182371335      5.2800000000002019      12.320000000000038
    49   1     -5.2787760182371333      3.5200000000003659      15.839999999999939
    50   1     -5.2787760182371333      5.2800000000170417      17.599999999994253
    51   1     -3.5187760182371335      3.5200000000000014      17.600000000000001
    52   1     -3.5187760182371335      5.2800000000002019      15.839999999999963
    53   1     -5.2787760182371333      3.5200000000001186      19.359999999999943
    54   1     -5.2787760182371333      5.2800000000037519      21.119999999997056
    55   1     -3.5187760182371335                    3.52      21.120000000000005
    56   1     -3.5187760182371335      5.2800000000000704      19.359999999999964
    57   1     -5.2787760182371333                    3.52      22.879999999999995
    58   1     -5.2787760182371333      5.2800000000000002      24.640000000000001
    59   1     -3.5187760182371335                    3.52      24.640000000000001
    60   1     -3.5187760182371335      5.2800000000000002      22.879999999999995
    61   1     -5.2787760182371333                    3.52      26.399999999999999
    62   1     -5.2787760182371333      5.2800000000000002      28.160000000000004
    63   1     -3.5187760182371335                    3.52      28.160000000000004
    64   1     -3.5187760182371335      5.2800000000000002      26.399999999999999
    65   1     -5.2787760182371333                    7.04      1.7599999999999998
    66   1     -5.2787760182371333      8.8000000000000558      3.5200000000001181
    67   1     -3.5187760182371335                    7.04      3.5199999999999996
    68   1     -3.5187760182371335      8.8000000000000007      1.7599999999999998
    69   1     -5.2787760182371333      7.0400000000029435      5.2800000000037519
    70   1     -5.2787760182371333      8.8000000001231324      7.0400000001631842
    71   1     -3.5187760182371335      7.0400000000015694      7.0400000000015686
    72   1     -3.5187760182371335       8.800000000000038      5.2800000000000704
    73   1     -5.2787760182371333      7.0400000001631842      8.8000000001231324
    74   1     -5.2787760182371333      8.8000000019374998       10.56000000122909
    75   1     -3.5187760182371335      7.0400000000065797      10.560000000002706
    76   1     -3.5187760182371335      8.8000000000352738      8.8000000000352756
    77   1     -5.2787760182371333      7.0400000004379306      12.320000000075904
    78   1     -5.2787760182371333      8.8000000035632411                   14.08
    79   1     -3.5187760182371335      7.0400000000097949                   14.08
    80   1     -3.5187760182371335      8.8000000001000753      12.320000000024429
    81   1     -5.2787760182371333      7.0400000004379306      15.839999999924096
    82   1     -5.2787760182371333      8.8000000019375015      17.599999998770912
    83   1     -3.5187760182371335      7.0400000000065797      17.599999999997294
    84   1     -3.5187760182371335      8.8000000001000753      15.839999999975571
    85   1     -5.2787760182371333      7.0400000001631842      19.359999999876869
    86   1     -5.2787760182371333      8.8000000001231324      21.119999999836814
    87   1     -3.5187760182371335      7.0400000000015694      21.119999999998434
    88   1     -3.5187760182371335      8.8000000000352738      19.359999999964728
    89   1     -5.2787760182371333      7.0400000000029435      22.879999999996244
    90   1     -5.2787760182371333      8.8000000000000558       24.63999999999988
    91   1     -3.5187760182371335                    7.04      24.640000000000001
    92   1     -3.5187760182371335       8.800000000000038      22.879999999999932
    93   1     -5.2787760182371333                    7.04      26.399999999999999
    94   1     -5.2787760182371333      8.8000000000000007      28.160000000000004
    95   1     -3.5187760182371335                    7.04      28.160000000000004
    96   1     -3.5187760182371335      8.8000000000000007      26.399999999999999
    97   1     -5.2787760182371333                   10.56      1.7599999999999998
    98   1     -5.2787760182371333      12.320000000000061      3.5200000000003655
    99   1     -3.5187760182371335                   10.56      3.5200000000000009
   100   1     -3.5187760182371335                   12.32      1.7599999999999998
   101   1     -5.2787760182371333      10.560000000005751      5.2800000000170408
   102   1     -5.2787760182371333      12.320000000075904      7.0400000004379306
   103   1     -3.5187760182371335      10.560000000002708      7.0400000000065797
   104   1     -3.5187760182371335      12.320000000000038      5.2800000000002019
   105   1     -5.2787760182371333       10.56000000122909      8.8000000019375015
   106   1     -5.2787760182371333      12.320000004612112      10.560000009722792
   107   1     -3.5187760182371335      10.560000000260693      10.560000000260693
   108   1     -3.5187760182371335      12.320000000024429      8.8000000001000753
   109   1     -5.2787760182371333      10.560000009722792      12.320000004612112
   110   1     -5.2787760182371333      12.320000016883395                   14.08
   111   1     -3.5187760182371335      10.560000000530588                   14.08
   112   1     -3.5187760182371335       12.32000000078455       12.32000000078455
   113   1     -5.2787760182371333      10.560000009722792      15.839999995387888
   114   1     -5.2787760182371333      12.320000004612112      17.599999990277208
   115   1     -3.5187760182371335      10.560000000260693      17.599999999739307
   116   1     -3.5187760182371335       12.32000000078455      15.839999999215451
   117   1     -5.2787760182371333       10.56000000122909      19.359999998062499
   118   1     -5.2787760182371333      12.320000000075904      21.119999999562069
   119   1     -3.5187760182371335      10.560000000002708      21.119999999993425
   120   1     -3.5187760182371335      12.320000000024429      19.359999999899927
   121   1     -5.2787760182371333      10.560000000005751      22.879999999982957
   122   1     -5.2787760182371333      12.320000000000061      24.639999999999638
   123   1     -3.5187760182371335                   10.56      24.640000000000001
   124   1     -3.5187760182371335      12.320000000000038      22.879999999999797
   125   1     -5.2787760182371333                   10.56      26.399999999999999
   126   1     -5.2787760182371333                   12.32      28.160000000000004
   127   1     -3.5187760182371335                   10.56      28.160000000000004
   128   1     -3.5187760182371335                   12.32      26.399999999999999
   129   1     -5.2787760182371333                   14.08      1.7600000000000013
   130   1     -5.2787760182371333      15.839999999999939      3.5200000000003655
   131   1     -3.5187760182371335      14.080000000000002      3.5200000000000022
   132   1     -3.5187760182371335      15.840000000000002      1.7599999999999998
   133   1     -5.2787760182371333                   14.08      5.2800000000257832
   134   1     -5.2787760182371333      15.839999999924098      7.0400000004379306
   135   1     -3.5187760182371335                   14.08      7.0400000000097949
   136   1     -3.5187760182371335      15.839999999999963      5.2800000000002019
   137   1     -5.2787760182371333                   14.08      8.8000000035632411
   138   1     -5.2787760182371333      15.839999995387888      10.560000009722792
   139   1     -3.5187760182371335                   14.08      10.560000000530588
   140   1     -3.5187760182371335      15.839999999975573      8.8000000001000753
   141   1     -5.2787760182371333                   14.08      12.320000016883395
   142   1     -5.2787760182371333      15.839999983116606                   14.08
   143   1     -3.5187760182371335                   14.08                   14.08
   144   1     -3.5187760182371335      15.839999999215451       12.32000000078455
   145   1     -5.2787760182371333                   14.08      15.839999983116606
   146   1     -5.2787760182371333      15.839999995387888      17.599999990277208
   147   1     -3.5187760182371339                   14.08      17.599999999469414
   148   1     -3.5187760182371335      15.839999999215451      15.839999999215451
   149   1     -5.2787760182371333                   14.08      19.359999996436756
   150   1     -5.2787760182371333      15.839999999924098      21.119999999562069
   151   1     -3.5187760182371335                   14.08      21.119999999990206
   152   1     -3.5187760182371335      15.839999999975573      19.359999999899927
   153   1     -5.2787760182371333                   14.08      22.879999999974217
   154   1     -5.2787760182371333      15.839999999999939      24.639999999999638
   155   1     -3.5187760182371335                   14.08      24.640000000000001
   156   1     -3.5187760182371335      15.839999999999963      22.879999999999797
   157   1     -5.2787760182371333                   14.08      26.399999999999999
   158   1     -5.2787760182371333      15.840000000000002      28.160000000000004
   159   1     -3.5187760182371335                   14.08      28.160000000000004
   160   1     -3.5187760182371335      15.840000000000002      26.399999999999999
   161   1     -5.2787760182371333      17.599999999999998      1.7599999999999998
   162   1     -5.2787760182371333      19.359999999999946      3.5200000000001181
   163   1     -3.5187760182371335      17.600000000000001      3.5200000000000009
   164   1     -3.5187760182371335      19.360000000000003      1.7599999999999998
   165   1     -5.2787760182371333       17.59999999999425      5.2800000000170408
   166   1     -5.2787760182371333      19.359999999876869      7.0400000001631842
   167   1     -3.5187760182371335      17.599999999997294      7.0400000000065797
   168   1     -3.5187760182371335      19.359999999999964      5.2800000000000704
   169   1     -5.2787760182371333      17.599999998770908      8.8000000019375015
   170   1     -5.2787760182371333      19.359999998062502       10.56000000122909
   171   1     -3.5187760182371335      17.599999999739307      10.560000000260693
   172   1     -3.5187760182371335      19.359999999964728      8.8000000000352756
   173   1     -5.2787760182371333      17.599999990277208      12.320000004612112
   174   1     -5.2787760182371333      19.359999996436763                   14.08
   175   1     -3.5187760182371335      17.599999999469411                   14.08
   176   1     -3.5187760182371335      19.359999999899927      12.320000000024429
   177   1     -5.2787760182371333      17.599999990277208      15.839999995387888
   178   1     -5.2787760182371333      19.359999998062502      17.599999998770912
   179   1     -3.5187760182371335      17.599999999739307       17.59999999973931
   180   1     -3.5187760182371335      19.359999999899927      15.839999999975571
   181   1     -5.2787760182371333      17.599999998770908      19.359999998062499
   182   1     -5.2787760182371333      19.359999999876869      21.119999999836814
   183   1     -3.5187760182371335      17.599999999997294      21.119999999993425
   184   1     -3.5187760182371335      19.359999999964728      19.359999999964728
   185   1     -5.2787760182371333       17.59999999999425      22.879999999982957
   186   1     -5.2787760182371333      19.359999999999946       24.63999999999988
   187   1     -3.5187760182371335      17.599999999999998      24.640000000000001
   188   1     -3.5187760182371335      19.359999999999964      22.879999999999932
   189   1     -5.2787760182371333      17.599999999999998      26.399999999999999
   190   1     -5.2787760182371333      19.360000000000003      28.160000000000004
   191   1     -3.5187760182371335      17.599999999999998      28.159999999999997
   192   1     -3.5187760182371335      19.360000000000003      26.399999999999999
   193   1     -5.2787760182371333      21.119999999999997      1.7599999999999998
   194   1     -5.2787760182371333      22.880000000000003      3.5199999999999996
   195   1     -3.5187760182371335      21.119999999999997      3.5199999999999996
   196   1     -3.5187760182371335      22.880000000000003      1.7599999999999998
   197   1     -5.2787760182371333      21.119999999997056      5.2800000000037519
   198   1     -5.2787760182371333      22.879999999996247      7.0400000000029435
   199   1     -3.5187760182371335      21.119999999998431      7.0400000000015686
   200   1     -3.5187760182371335      22.880000000000003      5.2799999999999994
   201   1     -5.2787760182371333      21.119999999836814      8.8000000001231342
   202   1     -5.2787760182371333       22.87999999998296      10.560000000005751
   203   1     -3.5187760182371335      21.119999999993418      10.560000000002706
   204   1     -3.5187760182371335      22.879999999999932      8.8000000000000362
   205   1     -5.2787760182371333      21.119999999562069      12.320000000075904
   206   1     -5.2787760182371333      22.879999999974217                   14.08
   207   1     -3.5187760182371335      21.119999999990203                   14.08
   208   1     -3.5187760182371335        22.8799999999998      12.320000000000038
   209   1     -5.2787760182371333      21.119999999562069      15.839999999924098
   210   1     -5.2787760182371333       22.87999999998296      17.599999999994253
   211   1     -3.5187760182371335      21.119999999993418      17.599999999997294
   212   1     -3.5187760182371335        22.8799999999998      15.839999999999963
   213   1     -5.2787760182371333      21.119999999836814      19.359999999876869
   214   1     -5.2787760182371333      22.879999999996247      21.119999999997056
   215   1     -3.5187760182371335      21.119999999998431      21.119999999998434
   216   1     -3.5187760182371335      22.879999999999932      19.359999999999964
   217   1     -5.2787760182371333      21.119999999997056      22.879999999996244
   218   1     -5.2787760182371333      22.880000000000003      24.640000000000001
   219   1     -3.5187760182371335      21.119999999999997      24.640000000000001
   220   1     -3.5187760182371335      22.880000000000003      22.879999999999995
   221   1     -5.2787760182371333      21.119999999999997      26.399999999999999
   222   1     -5.2787760182371333      22.880000000000003      28.160000000000004
   223   1     -3.5187760182371335      21.119999999999997      28.160000000000004
   224   1     -3.5187760182371335      22.880000000000003      26.399999999999999
   225   1     -5.2787760182371333      24.639999999999997      1.7599999999999998
   226   1     -5.2787760182371333      26.400000000000002      3.5199999999999996
   227   1     -3.5187760182371335      24.639999999999997      3.5199999999999996
   228   1     -3.5187760182371335      26.400000000000002      1.7599999999999998
   229   1     -5.2787760182371333      24.639999999999997      5.2799999999999994
   230   1     -5.2787760182371333      26.400000000000002                    7.04
   231   1     -3.5187760182371335      24.639999999999997                    7.04
   232   1     -3.5187760182371335      26.400000000000002      5.2799999999999994
   233   1     -5.2787760182371333       24.63999999999988      8.8000000000000558
   234   1     -5.2787760182371333      26.399999999999999                   10.56
   235   1     -3.5187760182371335      24.639999999999997                   10.56
   236   1     -3.5187760182371335      26.400000000000002      8.8000000000000007
   237   1     -5.2787760182371333      24.639999999999631      12.320000000000061
   238   1     -5.2787760182371333      26.399999999999999                   14.08
   239   1     -3.5187760182371335      24.639999999999997                   14.08
   240   1     -3.5187760182371335      26.400000000000002                   12.32
   241   1     -5.2787760182371333      24.639999999999631      15.839999999999939
   242   1     -5.2787760182371333      26.399999999999999      17.600000000000001
   243   1     -3.5187760182371335      24.639999999999997      17.600000000000001
   244   1     -3.5187760182371335      26.400000000000002                   15.84
   245   1     -5.2787760182371333       24.63999999999988      19.359999999999943
   246   1     -5.2787760182371333      26.400000000000002      21.120000000000005
   247   1     -3.5187760182371335      24.639999999999997      21.120000000000005
   248   1     -3.5187760182371335      26.400000000000002      19.359999999999999
   249   1     -5.2787760182371333      24.639999999999997      22.879999999999995
   250   1     -5.2787760182371333      26.400000000000002      24.640000000000001
   251   1     -3.5187760182371335      24.639999999999997      24.640000000000001
   252   1     -3.5187760182371335      26.400000000000002      22.879999999999995
   253   1     -5.2787760182371333      24.639999999999997      26.399999999999999
   254   1     -5.2787760182371333      26.400000000000002      28.160000000000004
   255   1     -3.5187760182371335      24.639999999999997      28.160000000000004
   256   1     -3.5187760182371335      26.400000000000002      26.399999999999999
   257   1     -1.7587760182371333                       0      1.7599999999999998
   258   1     -1.7587760182371333      1.7599999999999996      3.5199999999999996
   259   1   0.0012239817628669769                       0      3.5199999999999996
   260   1   0.0012239817628669769      1.7599999999999996      1.7599999999999998
   261   1     -1.7587760182371333                       0      5.2799999999999994
   262   1     -1.7587760182371328      1.7599999999999996                    7.04
   263   1   0.0012239817628669769                       0                    7.04
   264   1   0.0012239817628669769      1.7599999999999996      5.2800000000000002
   265   1     -1.7587760182371333                       0      8.8000000000000007
   266   1     -1.7587760182371319      1.7600000000000007                   10.56
   267   1   0.0012239817628678651                       0                   10.56
   268   1   0.0012239817629851046      1.7600000000001359      8.8000000000000558
   269   1     -1.7587760182371333                       0                   12.32
   270   1     -1.7587760182371301      1.7600000000000022                   14.08
   271   1   0.0012239817628696414                       0                   14.08
   272   1   0.0012239817632329064      1.7600000000004268      12.320000000000061
   273   1     -1.7587760182371333                       0                   15.84
   274   1     -1.7587760182371315      1.7600000000000009      17.600000000000001
   275   1   0.0012239817628678651                       0      17.600000000000001
   276   1   0.0012239817632329064      1.7600000000004268      15.839999999999939
   277   1     -1.7587760182371333                       0      19.359999999999999
   278   1     -1.7587760182371328      1.7599999999999998      21.120000000000005
   279   1   0.0012239817628669769                       0      21.120000000000005
   280   1   0.0012239817629851046      1.7600000000001359      19.359999999999943
   281   1     -1.7587760182371333                       0      22.879999999999995
   282   1     -1.7587760182371328      1.7599999999999998      24.640000000000001
   283   1   0.0012239817628669769                       0      24.640000000000001
   284   1   0.0012239817628669769      1.7599999999999996      22.879999999999995
   285   1     -1.7587760182371333                       0      26.399999999999999
   286   1     -1.7587760182371328      1.7599999999999996      28.160000000000004
   287   1   0.0012239817628669769                       0      28.160000000000004
   288   1   0.0012239817628669769      1.7599999999999996      26.399999999999999
   289   1     -1.7587760182371328      3.5200000000000005      1.7599999999999998
   290   1     -1.7587760182371333      5.2800000000000002      3.5199999999999996
   291   1   0.0012239817628669769                    3.52      3.5199999999999996
   292   1   0.0012239817628669769      5.2800000000000002      1.7599999999999998
   293   1     -1.7587760182371328      3.5200000000000005      5.2800000000000002
   294   1     -1.7587760182320427      5.2800000000037519      7.0400000000029435
   295   1   0.0012239817693506794      3.5200000000064837      7.0400000000043166
   296   1   0.0012239817751149573      5.2800000000103831      5.2800000000103831
   297   1     -1.7587760182369969      3.5200000000001186      8.8000000000000558
   298   1     -1.7587760182138994      5.2800000000170417      10.560000000005751
   299   1   0.0012239817931352093      3.5200000000302687      10.560000000008801
   300   1   0.0012239822918536092      5.2800000004497614      8.8000000002706997
   301   1      -1.758776018236706      3.5200000000003659      12.320000000000061
   302   1     -1.7587760182015626      5.2800000000257841                   14.08
   303   1   0.0012239818090673538      3.5200000000462004                   14.08
   304   1   0.0012239831105205212      5.2800000011441321       12.32000000015495
   305   1      -1.758776018236706      3.5200000000003659      15.839999999999939
   306   1     -1.7587760182138994      5.2800000000170417      17.599999999994253
   307   1   0.0012239817931352093      3.5200000000302687      17.599999999991198
   308   1   0.0012239831105205212      5.2800000011441321       15.83999999984505
   309   1     -1.7587760182369969      3.5200000000001186      19.359999999999943
   310   1     -1.7587760182320427      5.2800000000037528      21.119999999997056
   311   1   0.0012239817693506794      3.5200000000064837      21.119999999995684
   312   1   0.0012239822918536092      5.2800000004497614      19.359999999729297
   313   1     -1.7587760182371328      3.5200000000000005      22.879999999999995
   314   1     -1.7587760182371333      5.2800000000000002      24.640000000000001
   315   1   0.0012239817628669769      3.5200000000000005      24.640000000000001
   316   1   0.0012239817751140691      5.2800000000103831      22.879999999989614
   317   1     -1.7587760182371328      3.5200000000000005      26.399999999999999
   318   1     -1.7587760182371333      5.2800000000000002      28.160000000000004
   319   1   0.0012239817628669769      3.5200000000000005      28.160000000000004
   320   1   0.0012239817628669769      5.2800000000000002      26.399999999999999
   321   1     -1.7587760182371333      7.0400000000000009      1.7599999999999998
   322   1     -1.7587760182369969      8.8000000000000558      3.5200000000001177
   323   1   0.0012239817693506794      7.0400000000043166      3.5200000000064833
   324   1   0.0012239817629851046      8.8000000000000558       1.760000000000135
   325   1     -1.7587760182320427      7.0400000000029435      5.2800000000037528
   326   1     -1.7587760179542116      8.8000000001231324      7.0400000001631842
   327   1   0.0012239828017515109      7.0400000007106023      7.0400000007106014
   328   1   0.0012239822918536092      8.8000000002707015      5.2800000004497605
   329   1     -1.7587760179542116      7.0400000001631851      8.8000000001231342
   330   1     -1.7587760135871378      8.8000000019374998       10.56000000122909
   331   1   0.0012239911488318711      7.0400000058113692      10.560000003301491
   332   1   0.0012239884963580749      8.8000000031432339      8.8000000031432339
   333   1       -1.75877601748229      7.0400000004379306      12.320000000075904
   334   1     -1.7587760101369301      8.8000000035632411                   14.08
   335   1   0.0012239964405322823      7.0400000091054924                   14.08
   336   1   0.0012240187414453985      8.8000000063057211      12.320000012775827
   337   1       -1.75877601748229      7.0400000004379306      15.839999999924096
   338   1     -1.7587760135871378      8.8000000019375015      17.599999998770912
   339   1   0.0012239911488309829      7.0400000058113683      17.599999996698507
   340   1   0.0012240187414453985      8.8000000063057211      15.839999987224173
   341   1     -1.7587760179542116      7.0400000001631842      19.359999999876869
   342   1     -1.7587760179542116      8.8000000001231324      21.119999999836814
   343   1   0.0012239828017515109      7.0400000007106023      21.119999999289398
   344   1   0.0012239884963580749      8.8000000031432339      19.359999996856764
   345   1     -1.7587760182320427      7.0400000000029435      22.879999999996244
   346   1     -1.7587760182369969      8.8000000000000558       24.63999999999988
   347   1   0.0012239817693506794      7.0400000000043166       24.63999999999352
   348   1   0.0012239822918536092      8.8000000002707015      22.879999999550236
   349   1     -1.7587760182371333      7.0400000000000009      26.399999999999999
   350   1     -1.7587760182371333      8.8000000000000007      28.160000000000004
   351   1   0.0012239817628669769      7.0400000000000009      28.160000000000004
   352   1   0.0012239817629851046      8.8000000000000558      26.399999999999864
   353   1     -1.7587760182371319                   10.56                    1.76
   354   1      -1.758776018236706      12.320000000000061      3.5200000000003655
   355   1   0.0012239817931352093      10.560000000008802      3.5200000000302678
   356   1   0.0012239817632329064      12.320000000000061      1.7600000000004259
   357   1     -1.7587760182138998      10.560000000005751      5.2800000000170417
   358   1       -1.75877601748229      12.320000000075904      7.0400000004379306