(written by ASE)

1023 atoms
1 atom types

0.0      79.648507832852715  xlo xhi
0.0      79.648507832852715  ylo yhi
0.0                       2  zlo zhi

Atoms # atomic

     1   1                       0                       0                       0
     2   1      2.4890158697766473                       0                       0
     3   1      4.9780317395532947                       0                       0
     4   1       7.467047609329942                       0                       0
     5   1      9.9560634791065894                       0                       0
     6   1      12.445079348883237                       0                       0
     7   1      14.934095218659884                       0                       0
     8   1      17.423111088436531                       0                       0
     9   1      19.912126958213179                       0                       0
    10   1      22.401142827989826                       0                       0
    11   1      24.890158697766473                       0                       0
    12   1      27.379174567543121                       0                       0
    13   1      29.868190437319768                       0                       0
    14   1      32.357206307096419                       0                       0
    15   1      34.846222176873063                       0                       0
    16   1      37.335238046649707                       0                       0
    17   1      39.824253916426358                       0                       0
    18   1      42.313269786203008                       0                       0
    19   1      44.802285655979652                       0                       0
    20   1      47.291301525756296                       0                       0
    21   1      49.780317395532947                       0                       0
    22   1      52.269333265309598                       0                       0
    23   1      54.758349135086242                       0                       0
    24   1      57.247365004862885                       0                       0
    25   1      59.736380874639536                       0                       0
    26   1      62.225396744416187                       0                       0
    27   1      64.714412614192838                       0                       0
    28   1      67.203428483969475                       0                       0
    29   1      69.692444353746126                       0                       0
    30   1      72.181460223522777                       0                       0
    31   1      74.670476093299413                       0                       0
    32   1      77.159491963076064                       0                       0
    33   1                       0      2.4890158697766473                       0
    34   1      2.4890158697766473      2.4890158697766473                       0
    35   1      4.9780317395532947      2.4890158697766473                       0
    36   1       7.467047609329942      2.4890158697766473                       0
    37   1      9.9560634791065894      2.4890158697766473                       0
    38   1      12.445079348883237      2.4890158697766473                       0
    39   1      14.934095218659884      2.4890158697766473                       0
    40   1      17.423111088436531      2.4890158697766473                       0
    41   1      19.912126958213179      2.4890158697766473                       0
    42   1      22.401142827989826      2.4890158697766473                       0
    43   1      24.890158697766473      2.4890158697766473                       0
    44   1      27.379174567543121      2.4890158697766473                       0
    45   1      29.868190437319768      2.4890158697766473                       0
    46   1      32.357206307096419      2.4890158697766473                       0
    47   1      34.846222176873063      2.4890158697766473                       0
    48   1      37.335238046649707      2.4890158697766473                       0
    49   1      39.824253916426358      2.4890158697766473                       0
    50   1      42.313269786203008      2.4890158697766473                       0
    51   1      44.802285655979652      2.4890158697766473                       0
    52   1      47.291301525756296      2.4890158697766473                       0
    53   1      49.780317395532947      2.4890158697766473                       0
    54   1      52.269333265309598      2.4890158697766473                       0
    55   1      54.758349135086242      2.4890158697766473                       0
    56   1      57.247365004862885      2.4890158697766473                       0
    57   1      59.736380874639536      2.4890158697766473                       0
    58   1      62.225396744416187      2.4890158697766473                       0
    59   1      64.714412614192838      2.4890158697766473                       0
    60   1      67.203428483969475      2.4890158697766473                       0
    61   1      69.692444353746126      2.4890158697766473                       0
    62   1      72.181460223522777      2.4890158697766473                       0
    63   1      74.670476093299413      2.4890158697766473                       0
    64   1      77.159491963076064      2.4890158697766473                       0
    65   1                       0      4.9780317395532947                       0
    66   1      2.4890158697766473      4.9780317395532947                       0
    67   1      4.9780317395532947      4.9780317395532947                       0
    68   1       7.467047609329942      4.9780317395532947                       0
    69   1      9.9560634791065894      4.9780317395532947                       0
    70   1      12.445079348883237      4.9780317395532947                       0
    71   1      14.934095218659884      4.9780317395532947                       0
    72   1      17.423111088436531      4.9780317395532947                       0
    73   1      19.912126958213179      4.9780317395532947                       0
    74   1      22.401142827989826      4.9780317395532947                       0
    75   1      24.890158697766473      4.9780317395532947                       0
    76   1      27.379174567543121      4.9780317395532947                       0
    77   1      29.868190437319768      4.9780317395532947                       0
    78   1      32.357206307096419      4.9780317395532947                       0
    79   1      34.846222176873063      4.9780317395532947                       0
    80   1      37.335238046649707      4.9780317395532947                       0
    81   1      39.824253916426358      4.9780317395532947                       0
    82   1      42.313269786203008      4.9780317395532947                       0
    83   1      44.802285655979652      4.9780317395532947                       0
    84   1      47.291301525756296      4.9780317395532947                       0
    85   1      49.780317395532947      4.9780317395532947                       0
    86   1      52.269333265309598      4.9780317395532947                       0
    87   1      54.758349135086242      4.9780317395532947                       0
    88   1      57.247365004862885      4.9780317395532947                       0
    89   1      59.736380874639536      4.9780317395532947                       0
    90   1      62.225396744416187      4.9780317395532947                       0
    91   1      64.714412614192838      4.9780317395532947                       0
    92   1      67.203428483969475      4.9780317395532947                       0
    93   1      69.692444353746126      4.9780317395532947                       0
    94   1      72.181460223522777      4.9780317395532947                       0
    95   1      74.670476093299413      4.9780317395532947                       0
    96   1      77.159491963076064      4.9780317395532947                       0
    97   1                       0       7.467047609329942                       0
    98   1      2.4890158697766473       7.467047609329942                       0
    99   1      4.9780317395532947       7.467047609329942                       0
   100   1       7.467047609329942       7.467047609329942                       0
   101   1      9.9560634791065894       7.467047609329942                       0
   102   1      12.445079348883237       7.467047609329942                       0
   103   1      14.934095218659884       7.467047609329942                       0
   104   1      17.423111088436531       7.467047609329942                       0
   105   1      19.912126958213179       7.467047609329942                       0
   106   1      22.401142827989826       7.467047609329942                       0
   107   1      24.890158697766473       7.467047609329942                       0
   108   1      27.379174567543121       7.467047609329942                       0
   109   1      29.868190437319768       7.467047609329942                       0
   110   1      32.357206307096419       7.467047609329942                       0
   111   1      34.846222176873063       7.467047609329942                       0
   112   1      37.335238046649707       7.467047609329942                       0
   113   1      39.824253916426358       7.467047609329942                       0
   114   1      42.313269786203008       7.467047609329942                       0
   115   1      44.802285655979652       7.467047609329942                       0
   116   1      47.291301525756296       7.467047609329942                       0
   117   1      49.780317395532947       7.467047609329942                       0
   118   1      52.269333265309598       7.467047609329942                       0
   119   1      54.758349135086242       7.467047609329942                       0
   120   1      57.247365004862885       7.467047609329942                       0
   121   1      59.736380874639536       7.467047609329942                       0
   122   1      62.225396744416187       7.467047609329942                       0
   123   1      64.714412614192838       7.467047609329942                       0
   124   1      67.203428483969475       7.467047609329942                       0
   125   1      69.692444353746126       7.467047609329942                       0
   126   1      72.181460223522777       7.467047609329942                       0
   127   1      74.670476093299413       7.467047609329942                       0
   128   1      77.159491963076064       7.467047609329942                       0
   129   1                       0      9.9560634791065894                       0
   130   1      2.4890158697766473      9.9560634791065894                       0
   131   1      4.9780317395532947      9.9560634791065894                       0
   132   1       7.467047609329942      9.9560634791065894                       0
   133   1      9.9560634791065894      9.9560634791065894                       0
   134   1      12.445079348883237      9.9560634791065894                       0
   135   1      14.934095218659884      9.9560634791065894                       0
   136   1      17.423111088436531      9.9560634791065894                       0
   137   1      19.912126958213179      9.9560634791065894                       0
   138   1      22.401142827989826      9.9560634791065894                       0
   139   1      24.890158697766473      9.9560634791065894                       0
   140   1      27.379174567543121      9.9560634791065894                       0
   141   1      29.868190437319768      9.9560634791065894                       0
   142   1      32.357206307096419      9.9560634791065894                       0
   143   1      34.846222176873063      9.9560634791065894                       0
   144   1      37.335238046649707      9.9560634791065894                       0
   145   1      39.824253916426358      9.9560634791065894                       0
   146   1      42.313269786203008      9.9560634791065894                       0
   147   1      44.802285655979652      9.9560634791065894                       0
   148   1      47.291301525756296      9.9560634791065894                       0
   149   1      49.780317395532947      9.9560634791065894                       0
   150   1      52.269333265309598      9.9560634791065894                       0
   151   1      54.758349135086242      9.9560634791065894                       0
   152   1      57.247365004862885      9.9560634791065894                       0
   153   1      59.736380874639536      9.9560634791065894                       0
   154   1      62.225396744416187      9.9560634791065894                       0
   155   1      64.714412614192838      9.9560634791065894                       0
   156   1      67.203428483969475      9.9560634791065894                       0
   157   1      69.692444353746126      9.9560634791065894                       0
   158   1      72.181460223522777      9.9560634791065894                       0
   159   1      74.670476093299413      9.9560634791065894                       0
   160   1      77.159491963076064      9.9560634791065894                       0
   161   1                       0      12.445079348883237                       0
   162   1      2.4890158697766473      12.445079348883237                       0
   163   1      4.9780317395532947      12.445079348883237                       0
   164   1       7.467047609329942      12.445079348883237                       0
   165   1      9.9560634791065894      12.445079348883237                       0
   166   1      12.445079348883237      12.445079348883237                       0
   167   1      14.934095218659884      12.445079348883237                       0
   168   1      17.423111088436531      12.445079348883237                       0
   169   1      19.912126958213179      12.445079348883237                       0
   170   1      22.401142827989826      12.445079348883237                       0
   171   1      24.890158697766473      12.445079348883237                       0
   172   1      27.379174567543121      12.445079348883237                       0
   173   1      29.868190437319768      12.445079348883237                       0
   174   1      32.357206307096419      12.445079348883237                       0
   175   1      34.846222176873063      12.445079348883237                       0
   176   1      37.335238046649707      12.445079348883237                       0
   177   1      39.824253916426358      12.445079348883237                       0
   178   1      42.313269786203008      12.445079348883237                       0
   179   1      44.802285655979652      12.445079348883237                       0
   180   1      47.291301525756296      12.445079348883237                       0
   181   1      49.780317395532947      12.445079348883237                       0
   182   1      52.269333265309598      12.445079348883237                       0
   183   1      54.758349135086242      12.445079348883237                       0
   184   1      57.247365004862885      12.445079348883237                       0
   185   1      59.736380874639536      12.445079348883237                       0
   186   1      62.225396744416187      12.445079348883237                       0
   187   1      64.714412614192838      12.445079348883237                       0
   188   1      67.203428483969475      12.445079348883237                       0
   189   1      69.692444353746126      12.445079348883237                       0
   190   1      72.181460223522777      12.445079348883237                       0
   191   1      74.670476093299413      12.445079348883237                       0
   192   1      77.159491963076064      12.445079348883237                       0
   193   1                       0      14.934095218659884                       0
   194   1      2.4890158697766473      14.934095218659884                       0
   195   1      4.9780317395532947      14.934095218659884                       0
   196   1       7.467047609329942      14.934095218659884                       0
   197   1      9.9560634791065894      14.934095218659884                       0
   198   1      12.445079348883237      14.934095218659884                       0
   199   1      14.934095218659884      14.934095218659884                       0
   200   1      17.423111088436531      14.934095218659884                       0
   201   1      19.912126958213179      14.934095218659884                       0
   202   1      22.401142827989826      14.934095218659884                       0
   203   1      24.890158697766473      14.934095218659884                       0
   204   1      27.379174567543121      14.934095218659884                       0
   205   1      29.868190437319768      14.934095218659884                       0
   206   1      32.357206307096419      14.934095218659884                       0
   207   1      34.846222176873063      14.934095218659884                       0
   208   1      37.335238046649707      14.934095218659884                       0
   209   1      39.824253916426358      14.934095218659884                       0
   210   1      42.313269786203008      14.934095218659884                       0
   211   1      44.802285655979652      14.934095218659884                       0
   212   1      47.291301525756296      14.934095218659884                       0
   213   1      49.780317395532947      14.934095218659884                       0
   214   1      52.269333265309598      14.934095218659884                       0
   215   1      54.758349135086242      14.934095218659884                       0
   216   1      57.247365004862885      14.934095218659884                       0
   217   1      59.736380874639536      14.934095218659884                       0
   218   1      62.225396744416187      14.934095218659884                       0
   219   1      64.714412614192838      14.934095218659884                       0
   220   1      67.203428483969475      14.934095218659884                       0
   221   1      69.692444353746126      14.934095218659884                       0
   222   1      72.181460223522777      14.934095218659884                       0
   223   1      74.670476093299413      14.934095218659884                       0
   224   1      77.159491963076064      14.934095218659884                       0
   225   1                       0      17.423111088436531                       0
   226   1      2.4890158697766473      17.423111088436531                       0
   227   1      4.9780317395532947      17.423111088436531                       0
   228   1       7.467047609329942      17.423111088436531                       0
   229   1      9.9560634791065894      17.423111088436531                       0
   230   1      12.445079348883237      17.423111088436531                       0
   231   1      14.934095218659884      17.423111088436531                       0
   232   1      17.423111088436531      17.423111088436531                       0
   233   1      19.912126958213179      17.423111088436531                       0
   234   1      22.401142827989826      17.423111088436531                       0
   235   1      24.890158697766473      17.423111088436531                       0
   236   1      27.379174567543121      17.423111088436531                       0
   237   1      29.868190437319768      17.423111088436531                       0
   238   1      32.357206307096419      17.423111088436531                       0
   239   1      34.846222176873063      17.423111088436531                       0
   240   1      37.335238046649707      17.423111088436531                       0
   241   1      39.824253916426358      17.423111088436531                       0
   242   1      42.313269786203008      17.423111088436531                       0
   243   1      44.802285655979652      17.423111088436531                       0
   244   1      47.291301525756296      17.423111088436531                       0
   245   1      49.780317395532947      17.423111088436531                       0
   246   1      52.269333265309598      17.423111088436531                       0
   247   1      54.758349135086242      17.423111088436531                       0
   248   1      57.247365004862885      17.423111088436531                       0
   249   1      59.736380874639536      17.423111088436531                       0
   250   1      62.225396744416187      17.423111088436531                       0
   251   1      64.714412614192838      17.423111088436531                       0
   252   1      67.203428483969475      17.423111088436531                       0
   253   1      69.692444353746126      17.423111088436531                       0
   254   1      72.181460223522777      17.423111088436531                       0
   255   1      74.670476093299413      17.423111088436531                       0
   256   1      77.159491963076064      17.423111088436531                       0
   257   1                       0      19.912126958213179                       0
   258   1      2.4890158697766473      19.912126958213179                       0
   259   1      4.9780317395532947      19.912126958213179                       0
   260   1       7.467047609329942      19.912126958213179                       0
   261   1      9.9560634791065894      19.912126958213179                       0
   262   1      12.445079348883237      19.912126958213179                       0
   263   1      14.934095218659884      19.912126958213179                       0
   264   1      17.423111088436531      19.912126958213179                       0
   265   1      19.912126958213179      19.912126958213179                       0
   266   1      22.401142827989826      19.912126958213179                       0
   267   1      24.890158697766473      19.912126958213179                       0
   268   1      27.379174567543121      19.912126958213179                       0
   269   1      29.868190437319768      19.912126958213179                       0
   270   1      32.357206307096419      19.912126958213179                       0
   271   1      34.846222176873063      19.912126958213179                       0
   272   1      37.335238046649707      19.912126958213179                       0
   273   1      39.824253916426358      19.912126958213179                       0
   274   1      42.313269786203008      19.912126958213179                       0
   275   1      44.802285655979652      19.912126958213179                       0
   276   1      47.291301525756296      19.912126958213179                       0
   277   1      49.780317395532947      19.912126958213179                       0
   278   1      52.269333265309598      19.912126958213179                       0
   279   1      54.758349135086242      19.912126958213179                       0
   280   1      57.247365004862885      19.912126958213179                       0
   281   1      59.736380874639536      19.912126958213179                       0
   282   1      62.225396744416187      19.912126958213179                       0
   283   1      64.714412614192838      19.912126958213179                       0
   284   1      67.203428483969475      19.912126958213179                       0
   285   1      69.692444353746126      19.912126958213179                       0
   286   1      72.181460223522777      19.912126958213179                       0
   287   1      74.670476093299413      19.912126958213179                       0
   288   1      77.159491963076064      19.912126958213179                       0
   289   1                       0      22.401142827989826                       0
   290   1      2.4890158697766473      22.401142827989826                       0
   291   1      4.9780317395532947      22.401142827989826                       0
   292   1       7.467047609329942      22.401142827989826                       0
   293   1      9.9560634791065894      22.401142827989826                       0
   294   1      12.445079348883237      22.401142827989826                       0
   295   1      14.934095218659884      22.401142827989826                       0
   296   1      17.423111088436531      22.401142827989826                       0
   297   1      19.912126958213179      22.401142827989826                       0
   298   1      22.401142827989826      22.401142827989826                       0
   299   1      24.890158697766473      22.401142827989826                       0
   300   1      27.379174567543121      22.401142827989826                       0
   301   1      29.868190437319768      22.401142827989826                       0
   302   1      32.357206307096419      22.401142827989826                       0
   303   1      34.846222176873063      22.401142827989826                       0
   304   1      37.335238046649707      22.401142827989826                       0
   305   1      39.824253916426358      22.401142827989826                       0
   306   1      42.313269786203008      22.401142827989826                       0
   307   1      44.802285655979652      22.401142827989826                       0
   308   1      47.291301525756296      22.401142827989826                       0
   309   1      49.780317395532947      22.401142827989826                       0
   310   1      52.269333265309598      22.401142827989826                       0
   311   1      54.758349135086242      22.401142827989826                       0
   312   1      57.247365004862885      22.401142827989826                       0
   313   1      59.736380874639536      22.401142827989826                       0
   314   1      62.225396744416187      22.401142827989826                       0
   315   1      64.714412614192838      22.401142827989826                       0
   316   1      67.203428483969475      22.401142827989826                       0
   317   1      69.692444353746126      22.401142827989826                       0
   318   1      72.181460223522777      22.401142827989826                       0
   319   1      74.670476093299413      22.401142827989826                       0
   320   1      77.159491963076064      22.401142827989826                       0
   321   1                       0      24.890158697766473                       0
   322   1      2.4890158697766473      24.890158697766473                       0
   323   1      4.9780317395532947      24.890158697766473                       0
   324   1       7.467047609329942      24.890158697766473                       0
   325   1      9.9560634791065894      24.890158697766473                       0
   326   1      12.445079348883237      24.890158697766473                       0
   327   1      14.934095218659884      24.890158697766473                       0
   328   1      17.423111088436531      24.890158697766473                       0
   329   1      19.912126958213179      24.890158697766473                       0
   330   1      22.401142827989826      24.890158697766473                       0
   331   1      24.890158697766473      24.890158697766473                       0
   332   1      27.379174567543121      24.890158697766473                       0
   333   1      29.868190437319768      24.890158697766473                       0
   334   1      32.357206307096419      24.890158697766473                       0
   335   1      34.846222176873063      24.890158697766473                       0
   336   1      37.335238046649707      24.890158697766473                       0
   337   1      39.824253916426358      24.890158697766473                       0
   338   1      42.313269786203008      24.890158697766473                       0
   339   1      44.802285655979652      24.890158697766473                       0
   340   1      47.291301525756296      24.890158697766473                       0
   341   1      49.780317395532947      24.890158697766473                       0
   342   1      52.269333265309598      24.890158697766473                       0
   343   1      54.758349135086242      24.890158697766473                       0
   344   1      57.247365004862885      24.890158697766473                       0
   345   1      59.736380874639536      24.890158697766473                       0
   346   1      62.225396744416187      24.890158697766473                       0
   347   1      64.714412614192838      24.890158697766473                       0
   348   1      67.203428483969475      24.890158697766473                       0
   349   1      69.692444353746126      24.890158697766473                       0
   350   1      72.181460223522777      24.890158697766473                       0
   351   1      74.670476093299413      24.890158697766473                       0
   352   1      77.159491963076064      24.890158697766473                       0
   353   1                       0      27.379174567543121                       0
   354   1      2.4890158697766473      27.379174567543121                       0
   355   1      4.9780317395532947      27.379174567543121                       0
   356   1       7.467047609329942      27.379174567543121                       0
   357   1      9.9560634791065894      27.379174567543121                       0
   358   1      12.445079348883237      27.379174567543121                       0
   359   1      14.934095218659884      27.379174567543121                       0