ANIMSTEPS 10
CRYSTAL
PRIMVEC
 17.60000000000000 0.00000000000000 0.00000000000000
 0.00000000000000 17.60000000000000 0.00000000000000
 0.00000000000000 0.00000000000000 17.60000000000000
PRIMCOORD 1
 499 1
 28     0.00000000000000     0.00000000000000     0.00000000000000
 28     0.00000000000000     1.76000000000000     1.76000000000000
 28     1.76000000000000     0.00000000000000     1.76000000000000
 28     1.76000000000000     1.76000000000000     0.00000000000000
 28     0.00000000000000     0.00000000000000     3.52000000000000
 28     0.00000000000000     1.76000000000000     5.28000000000000
 28     1.76000000000000     0.00000000000000     5.28000000000000
 28     1.76000000000000     1.76000000000000     3.52000000000000
 28     0.00000000000000     0.00000000000000     7.04000000000000
 28     0.00000000000000     1.76000000000000     8.80000000000000
 28     1.76000000000000     0.00000000000000     8.80000000000000
 28     1.76000000000000     1.76000000000000     7.04000000000000
 28     0.00000000000000     0.00000000000000    10.56000000000000
 28     0.00000000000000     1.76000000000000    12.32000000000000
 28     1.76000000000000     0.00000000000000    12.32000000000000
 28     1.76000000000000     1.76000000000000    10.56000000000000
 28     0.00000000000000     0.00000000000000    14.08000000000000
 28     0.00000000000000     1.76000000000000    15.84000000000000
 28     1.76000000000000     0.00000000000000    15.84000000000000
 28     1.76000000000000     1.76000000000000    14.08000000000000
 28     0.00000000000000     3.52000000000000     0.00000000000000
 28     0.00000000000000     5.28000000000000     1.76000000000000
 28     1.76000000000000     3.52000000000000     1.76000000000000
 28     1.76000000000000     5.28000000000000     0.00000000000000
 28     0.00000000000000     3.52000000000000     3.52000000000000
 28     0.00000000000000     5.28000000000000     5.28000000000000
 28     1.76000000000000     3.52000000000000     5.28000000000000
 28     1.76000000000000     5.28000000000000     3.52000000000000
 28     0.00000000000000     3.52000000000000     7.04000000000000
 28     0.00000000000000     5.28000000000000     8.80000000000000
 28     1.76000000000000     3.52000000000000     8.80000000000000
 28     1.76000000000000     5.28000000000000     7.04000000000000
 28     0.00000000000000     3.52000000000000    10.56000000000000
 28     0.00000000000000     5.28000000000000    12.32000000000000
 28     1.76000000000000     3.52000000000000    12.32000000000000
 28     1.76000000000000     5.28000000000000    10.56000000000000
 28     0.00000000000000     3.52000000000000    14.08000000000000
 28     0.00000000000000     5.28000000000000    15.84000000000000
 28     1.76000000000000     3.52000000000000    15.84000000000000
 28     1.76000000000000     5.28000000000000    14.08000000000000
 28     0.00000000000000     7.04000000000000     0.00000000000000
 28     0.00000000000000     8.80000000000000     1.76000000000000
 28     1.76000000000000     7.04000000000000     1.76000000000000
 28     1.76000000000000     8.80000000000000     0.00000000000000
 28     0.00000000000000     7.04000000000000     3.52000000000000
 28     0.00000000000000     8.80000000000000     5.28000000000000
 28     1.76000000000000     7.04000000000000     5.28000000000000
 28     1.76000000000000     8.80000000000000     3.52000000000000
 28     0.00000000000000     7.04000000000000     7.04000000000000
 28     0.00000000000000     8.80000000000000     8.80000000000000
 28     1.76000000000000     7.04000000000000     8.80000000000000
 28     1.76000000000000     8.80000000000000     7.04000000000000
 28     0.00000000000000     7.04000000000000    10.56000000000000
 28     0.00000000000000     8.80000000000000    12.32000000000000
 28     1.76000000000000     7.04000000000000    12.32000000000000
 28     1.76000000000000     8.80000000000000    10.56000000000000
 28     0.00000000000000     7.04000000000000    14.08000000000000
 28     0.00000000000000     8.80000000000000    15.84000000000000
 28     1.76000000000000     7.04000000000000    15.84000000000000
 28     1.76000000000000     8.80000000000000    14.08000000000000
 28     0.00000000000000    10.56000000000000     0.00000000000000
 28     0.00000000000000    12.32000000000000     1.76000000000000
 28     1.76000000000000    10.56000000000000     1.76000000000000
 28     1.76000000000000    12.32000000000000     0.00000000000000
 28     0.00000000000000    10.56000000000000     3.52000000000000
 28     0.00000000000000    12.32000000000000     5.28000000000000
 28     1.76000000000000    10.56000000000000     5.28000000000000
 28     1.76000000000000    12.32000000000000     3.52000000000000
 28     0.00000000000000    10.56000000000000     7.04000000000000
 28     0.00000000000000    12.32000000000000     8.80000000000000
 28     1.76000000000000    10.56000000000000     8.80000000000000
 28     1.76000000000000    12.32000000000000     7.04000000000000
 28     0.00000000000000    10.56000000000000    10.56000000000000
 28     0.00000000000000    12.32000000000000    12.32000000000000
 28     1.76000000000000    10.56000000000000    12.32000000000000
 28     1.76000000000000    12.32000000000000    10.56000000000000
 28     0.00000000000000    10.56000000000000    14.08000000000000
 28     0.00000000000000    12.32000000000000    15.84000000000000
 28     1.76000000000000    10.56000000000000    15.84000000000000
 28     1.76000000000000    12.32000000000000    14.08000000000000
 28     0.00000000000000    14.08000000000000     0.00000000000000
 28     0.00000000000000    15.84000000000000     1.76000000000000
 28     1.76000000000000    14.08000000000000     1.76000000000000
 28     1.76000000000000    15.84000000000000     0.00000000000000
 28     0.00000000000000    14.08000000000000     3.52000000000000
 28     0.00000000000000    15.84000000000000     5.28000000000000
 28     1.76000000000000    14.08000000000000     5.28000000000000
 28     1.76000000000000    15.84000000000000     3.52000000000000
 28     0.00000000000000    14.08000000000000     7.04000000000000
 28     0.00000000000000    15.84000000000000     8.80000000000000
 28     1.76000000000000    14.08000000000000     8.80000000000000
 28     1.76000000000000    15.84000000000000     7.04000000000000
 28     0.00000000000000    14.08000000000000    10.56000000000000
 28     0.00000000000000    15.84000000000000    12.32000000000000
 28     1.76000000000000    14.08000000000000    12.32000000000000
 28     1.76000000000000    15.84000000000000    10.56000000000000
 28     0.00000000000000    14.08000000000000    14.08000000000000
 28     0.00000000000000    15.84000000000000    15.84000000000000
 28     1.76000000000000    14.08000000000000    15.84000000000000
 28     1.76000000000000    15.84000000000000    14.08000000000000
 28     3.52000000000000     0.00000000000000     0.00000000000000
 28     3.52000000000000     1.76000000000000     1.76000000000000
 28     5.28000000000000     0.00000000000000     1.76000000000000
 28     5.28000000000000     1.76000000000000     0.00000000000000
 28     3.52000000000000     0.00000000000000     3.52000000000000
 28     3.52000000000000     1.76000000000000     5.28000000000000
 28     5.28000000000000     0.00000000000000     5.28000000000000
 28     5.28000000000000     1.76000000000000     3.52000000000000
 28     3.52000000000000     0.00000000000000     7.04000000000000
 28     3.52000000000000     1.76000000000000     8.80000000000000
 28     5.28000000000000     0.00000000000000     8.80000000000000
 28     5.28000000000000     1.76000000000000     7.04000000000000
 28     3.52000000000000     0.00000000000000    10.56000000000000
 28     3.52000000000000     1.76000000000000    12.32000000000000
 28     5.28000000000000     0.00000000000000    12.32000000000000
 28     5.28000000000000     1.76000000000000    10.56000000000000
 28     3.52000000000000     0.00000000000000    14.08000000000000
 28     3.52000000000000     1.76000000000000    15.84000000000000
 28     5.28000000000000     0.00000000000000    15.84000000000000
 28     5.28000000000000     1.76000000000000    14.08000000000000
 28     3.52000000000000     3.52000000000000     0.00000000000000
 28     3.52000000000000     5.28000000000000     1.76000000000000
 28     5.28000000000000     3.52000000000000     1.76000000000000
 28     5.28000000000000     5.28000000000000     0.00000000000000
 28     3.52000000000000     3.52000000000000     3.52000000000000
 28     3.52000000000000     5.28000000000000     5.28000000000000
 28     5.28000000000000     3.52000000000000     5.28000000000000
 28     5.28000000000000     5.28000000000000     3.52000000000000
 28     3.52000000000000     3.52000000000000     7.04000000000000
 28     3.52000000000000     5.28000000000000     8.80000000000000
 28     5.28000000000000     3.52000000000000     8.80000000000000
 28     5.28000000000000     5.28000000000000     7.04000000000000
 28     3.52000000000000     3.52000000000000    10.56000000000000
 28     3.52000000000000     5.28000000000000    12.32000000000000
 28     5.28000000000000     3.52000000000000    12.32000000000000
 28     5.28000000000000     5.28000000000000    10.56000000000000
 28     3.52000000000000     3.52000000000000    14.08000000000000
 28     3.52000000000000     5.28000000000000    15.84000000000000
 28     5.28000000000000     3.52000000000000    15.84000000000000
 28     5.28000000000000     5.28000000000000    14.08000000000000
 28     3.52000000000000     7.04000000000000     0.00000000000000
 28     3.52000000000000     8.80000000000000     1.76000000000000
 28     5.28000000000000     7.04000000000000     1.76000000000000
 28     5.28000000000000     8.80000000000000     0.00000000000000
 28     3.52000000000000     7.04000000000000     3.52000000000000
 28     3.52000000000000     8.80000000000000     5.28000000000000
 28     5.28000000000000     7.04000000000000     5.28000000000000
 28     5.28000000000000     8.80000000000000     3.52000000000000
 28     3.52000000000000     7.04000000000000     7.04000000000000
 28     3.52000000000000     8.80000000000000     8.80000000000000
 28     5.28000000000000     7.04000000000000     8.80000000000000
 28     5.28000000000000     8.80000000000000     7.04000000000000
 28     3.52000000000000     7.04000000000000    10.56000000000000
 28     3.52000000000000     8.80000000000000    12.32000000000000
 28     5.28000000000000     7.04000000000000    12.32000000000000
 28     5.28000000000000     8.80000000000000    10.56000000000000
 28     3.52000000000000     7.04000000000000    14.08000000000000
 28     3.52000000000000     8.80000000000000    15.84000000000000
 28     5.28000000000000     7.04000000000000    15.84000000000000
 28     5.28000000000000     8.80000000000000    14.08000000000000
 28     3.52000000000000    10.56000000000000     0.00000000000000
 28     3.52000000000000    12.32000000000000     1.76000000000000
 28     5.28000000000000    10.56000000000000     1.76000000000000
 28     5.28000000000000    12.32000000000000     0.00000000000000
 28     3.52000000000000    10.56000000000000     3.52000000000000
 28     3.52000000000000    12.32000000000000     5.28000000000000
 28     5.28000000000000    10.56000000000000     5.28000000000000
 28     5.28000000000000    12.32000000000000     3.52000000000000
 28     3.52000000000000    10.56000000000000     7.04000000000000
 28     3.52000000000000    12.32000000000000     8.80000000000000
 28     5.28000000000000    10.56000000000000     8.80000000000000
 28     5.28000000000000    12.32000000000000     7.04000000000000
 28     3.52000000000000    10.56000000000000    10.56000000000000
 28     3.52000000000000    12.32000000000000    12.32000000000000
 28     5.28000000000000    10.56000000000000    12.32000000000000
 28     5.28000000000000    12.32000000000000    10.56000000000000
 28     3.52000000000000    10.56000000000000    14.08000000000000
 28     3.52000000000000    12.32000000000000    15.84000000000000
 28     5.28000000000000    10.56000000000000    15.84000000000000
 28     5.28000000000000    12.32000000000000    14.08000000000000
 28     3.52000000000000    14.08000000000000     0.00000000000000
 28     3.52000000000000    15.84000000000000     1.76000000000000
 28     5.28000000000000    14.08000000000000     1.76000000000000
 28     5.28000000000000    15.84000000000000     0.00000000000000
 28     3.52000000000000    14.08000000000000     3.52000000000000
 28     3.52000000000000    15.84000000000000     5.28000000000000
 28     5.28000000000000    14.08000000000000     5.28000000000000
 28     5.28000000000000    15.84000000000000     3.52000000000000
 28     3.52000000000000    14.08000000000000     7.04000000000000
 28     3.52000000000000    15.84000000000000     8.80000000000000
 28     5.28000000000000    14.08000000000000     8.80000000000000
 28     5.28000000000000    15.84000000000000     7.04000000000000
 28     3.52000000000000    14.08000000000000    10.56000000000000
 28     3.52000000000000    15.84000000000000    12.32000000000000
 28     5.28000000000000    14.08000000000000    12.32000000000000
 28     5.28000000000000    15.84000000000000    10.56000000000000
 28     3.52000000000000    14.08000000000000    14.08000000000000
 28     3.52000000000000    15.84000000000000    15.84000000000000
 28     5.28000000000000    14.08000000000000    15.84000000000000
 28     5.28000000000000    15.84000000000000    14.08000000000000
 28     7.04000000000000     0.00000000000000     0.00000000000000
 28     7.04000000000000     1.76000000000000     1.76000000000000
 28     8.80000000000000     0.00000000000000     1.76000000000000
 28     8.80000000000000     1.76000000000000     0.00000000000000
 28     7.04000000000000     0.00000000000000     3.52000000000000
 28     7.04000000000000     1.76000000000000     5.28000000000000
 28     8.80000000000000     0.00000000000000     5.28000000000000
 28     8.80000000000000     1.76000000000000     3.52000000000000
 28     7.04000000000000     0.00000000000000     7.04000000000000
 28     7.04000000000000     1.76000000000000     8.80000000000000
 28     8.80000000000000     0.00000000000000     8.80000000000000
 28     8.80000000000000     1.76000000000000     7.04000000000000
 28     7.04000000000000     0.00000000000000    10.56000000000000
 28     7.04000000000000     1.76000000000000    12.32000000000000
 28     8.80000000000000     0.00000000000000    12.32000000000000
 28     8.80000000000000     1.76000000000000    10.56000000000000
 28     7.04000000000000     0.00000000000000    14.08000000000000
 28     7.04000000000000     1.76000000000000    15.84000000000000
 28     8.80000000000000     0.00000000000000    15.84000000000000
 28     8.80000000000000     1.76000000000000    14.08000000000000
 28     7.04000000000000     3.52000000000000     0.00000000000000
 28     7.04000000000000     5.28000000000000     1.76000000000000
 28     8.80000000000000     3.52000000000000     1.76000000000000
 28     8.80000000000000     5.28000000000000     0.00000000000000
 28     7.04000000000000     3.52000000000000     3.52000000000000
 28     7.04000000000000     5.28000000000000     5.28000000000000
 28     8.80000000000000     3.52000000000000     5.28000000000000
 28     8.80000000000000     5.28000000000000     3.52000000000000
 28     7.04000000000000     3.52000000000000     7.04000000000000
 28     7.04000000000000     5.28000000000000     8.80000000000000
 28     8.80000000000000     3.52000000000000     8.80000000000000
 28     8.80000000000000     5.28000000000000     7.04000000000000
 28     7.04000000000000     3.52000000000000    10.56000000000000
 28     7.04000000000000     5.28000000000000    12.32000000000000
 28     8.80000000000000     3.52000000000000    12.32000000000000
 28     8.80000000000000     5.28000000000000    10.56000000000000
 28     7.04000000000000     3.52000000000000    14.08000000000000
 28     7.04000000000000     5.28000000000000    15.84000000000000
 28     8.80000000000000     3.52000000000000    15.84000000000000
 28     8.80000000000000     5.28000000000000    14.08000000000000
 28     7.04000000000000     7.04000000000000     0.00000000000000
 28     7.04000000000000     8.80000000000000     1.76000000000000
 28     8.80000000000000     7.04000000000000     1.76000000000000
 28     8.80000000000000     8.80000000000000     0.00000000000000
 28     7.04000000000000     7.04000000000000     3.52000000000000
 28     7.04000000000000     8.80000000000000     5.28000000000000
 28     8.80000000000000     7.04000000000000     5.28000000000000
 28     8.80000000000000     8.80000000000000     3.52000000000000
 28     7.04000000000000     7.04000000000000     7.04000000000000
 28     7.04000000000000     8.80000000000000     8.80000000000000
 28     8.80000000000000     8.80000000000000     7.04000000000000
 28     7.04000000000000     7.04000000000000    10.56000000000000
 28     7.04000000000000     8.80000000000000    12.32000000000000
 28     8.80000000000000     7.04000000000000    12.32000000000000
 28     8.80000000000000     8.80000000000000    10.56000000000000
 28     7.04000000000000     7.04000000000000    14.08000000000000
 28     7.04000000000000     8.80000000000000    15.84000000000000
 28     8.80000000000000     7.04000000000000    15.84000000000000
 28     8.80000000000000     8.80000000000000    14.08000000000000
 28     7.04000000000000    10.56000000000000     0.00000000000000
 28     7.04000000000000    12.32000000000000     1.76000000000000
 28     8.80000000000000    10.56000000000000     1.76000000000000
 28     8.80000000000000    12.32000000000000     0.00000000000000
 28     7.04000000000000    10.56000000000000     3.52000000000000
 28     7.04000000000000    12.32000000000000     5.28000000000000
 28     8.80000000000000    10.56000000000000     5.28000000000000
 28     8.80000000000000    12.32000000000000     3.52000000000000
 28     7.04000000000000    10.56000000000000     7.04000000000000
 28     7.04000000000000    12.32000000000000     8.80000000000000
 28     8.80000000000000    10.56000000000000     8.80000000000000
 28     8.80000000000000    12.32000000000000     7.04000000000000
 28     7.04000000000000    10.56000000000000    10.56000000000000
 28     7.04000000000000    12.32000000000000    12.32000000000000
 28     8.80000000000000    10.56000000000000    12.32000000000000
 28     8.80000000000000    12.32000000000000    10.56000000000000
 28     7.04000000000000    10.56000000000000    14.08000000000000
 28     7.04000000000000    12.32000000000000    15.84000000000000
 28     8.80000000000000    10.56000000000000    15.84000000000000
 28     8.80000000000000    12.32000000000000    14.08000000000000
 28     7.04000000000000    14.08000000000000     0.00000000000000
 28     7.04000000000000    15.84000000000000     1.76000000000000
 28     8.80000000000000    14.08000000000000     1.76000000000000
 28     8.80000000000000    15.84000000000000     0.00000000000000
 28     7.04000000000000    14.08000000000000     3.52000000000000
 28     7.04000000000000    15.84000000000000     5.28000000000000
 28     8.80000000000000    14.08000000000000     5.28000000000000
 28     8.80000000000000    15.84000000000000     3.52000000000000
 28     7.04000000000000    14.08000000000000     7.04000000000000
 28     7.04000000000000    15.84000000000000     8.80000000000000
 28     8.80000000000000    14.08000000000000     8.80000000000000
 28     8.80000000000000    15.84000000000000     7.04000000000000
 28     7.04000000000000    14.08000000000000    10.56000000000000
 28     7.04000000000000    15.84000000000000    12.32000000000000
 28     8.80000000000000    14.08000000000000    12.32000000000000
 28     8.80000000000000    15.84000000000000    10.56000000000000
 28     7.04000000000000    14.08000000000000    14.08000000000000
 28     7.04000000000000    15.84000000000000    15.84000000000000
 28     8.80000000000000    14.08000000000000    15.84000000000000
 28     8.80000000000000    15.84000000000000    14.08000000000000
 28    10.56000000000000     0.00000000000000     0.00000000000000
 28    10.56000000000000     1.76000000000000     1.76000000000000
 28    12.32000000000000     0.00000000000000     1.76000000000000
 28    12.32000000000000     1.76000000000000     0.00000000000000
 28    10.56000000000000     0.00000000000000     3.52000000000000
 28    10.56000000000000     1.76000000000000     5.28000000000000
 28    12.32000000000000     0.00000000000000     5.28000000000000
 28    12.32000000000000     1.76000000000000     3.52000000000000
 28    10.56000000000000     0.00000000000000     7.04000000000000
 28    10.56000000000000     1.76000000000000     8.80000000000000
 28    12.32000000000000     0.00000000000000     8.80000000000000
 28    12.32000000000000     1.76000000000000     7.04000000000000
 28    10.56000000000000     0.00000000000000    10.56000000000000
 28    10.56000000000000     1.76000000000000    12.32000000000000
 28    12.32000000000000     0.00000000000000    12.32000000000000
 28    12.32000000000000     1.76000000000000    10.56000000000000
 28    10.56000000000000     0.00000000000000    14.08000000000000
 28    10.56000000000000     1.76000000000000    15.84000000000000
 28    12.32000000000000     0.00000000000000    15.84000000000000
 28    12.32000000000000     1.76000000000000    14.08000000000000
 28    10.56000000000000     3.52000000000000     0.00000000000000
 28    10.56000000000000     5.28000000000000     1.76000000000000
 28    12.32000000000000     3.52000000000000     1.76000000000000
 28    12.32000000000000     5.28000000000000     0.00000000000000
 28    10.56000000000000     3.52000000000000     3.52000000000000
 28    10.56000000000000     5.28000000000000     5.28000000000000
 28    12.32000000000000     3.52000000000000     5.28000000000000
 28    12.32000000000000     5.28000000000000     3.52000000000000
 28    10.56000000000000     3.52000000000000     7.04000000000000
 28    10.56000000000000     5.28000000000000     8.80000000000000
 28    12.32000000000000     3.52000000000000     8.80000000000000
 28    12.32000000000000     5.28000000000000     7.04000000000000
 28    10.56000000000000     3.52000000000000    10.56000000000000
 28    10.56000000000000     5.28000000000000    12.32000000000000
 28    12.32000000000000     3.52000000000000    12.32000000000000
 28    12.32000000000000     5.28000000000000    10.56000000000000
 28    10.56000000000000     3.52000000000000    14.08000000000000
 28    10.56000000000000     5.28000000000000    15.84000000000000
 28    12.32000000000000     3.52000000000000    15.84000000000000
 28    12.32000000000000     5.28000000000000    14.08000000000000
 28    10.56000000000000     7.04000000000000     0.00000000000000
 28    10.56000000000000     8.80000000000000     1.76000000000000
 28    12.32000000000000     7.04000000000000     1.76000000000000
 28    12.32000000000000     8.80000000000000     0.00000000000000
 28    10.56000000000000     7.04000000000000     3.52000000000000
 28    10.56000000000000     8.80000000000000     5.28000000000000
 28    12.32000000000000     7.04000000000000     5.28000000000000
 28    12.32000000000000     8.80000000000000     3.52000000000000
 28    10.56000000000000     7.04000000000000     7.04000000000000
 28    10.56000000000000     8.80000000000000     8.80000000000000
 28    12.32000000000000     7.04000000000000     8.80000000000000
 28    12.32000000000000     8.80000000000000     7.04000000000000
 28    10.56000000000000     7.04000000000000    10.56000000000000
 28    10.56000000000000     8.80000000000000    12.32000000000000
 28    12.32000000000000     7.04000000000000    12.32000000000000
 28    12.32000000000000     8.80000000000000    10.56000000000000
 28    10.56000000000000     7.04000000000000    14.08000000000000
 28    10.56000000000000     8.80000000000000    15.84000000000000
 28    12.32000000000000     7.04000000000000    15.84000000000000
 28    12.32000000000000     8.80000000000000    14.08000000000000
 28    10.56000000000000    10.56000000000000     0.00000000000000
 28    10.56000000000000    12.32000000000000     1.76000000000000
 28    12.32000000000000    10.56000000000000     1.76000000000000
 28    12.32000000000000    12.32000000000000     0.00000000000000
 28    10.56000000000000    10.56000000000000     3.52000000000000
 28    10.56000000000000    12.32000000000000     5.28000000000000
 28    12.32000000000000    10.56000000000000     5.28000000000000
 28    12.32000000000000    12.32000000000000     3.52000000000000
 28    10.56000000000000    10.56000000000000     7.04000000000000
 28    10.56000000000000    12.32000000000000     8.80000000000000
 28    12.32000000000000    10.56000000000000     8.80000000000000
 28    12.32000000000000    12.32000000000000     7.04000000000000
 28    10.56000000000000    10.56000000000000    10.56000000000000
 28    10.56000000000000    12.32000000000000    12.32000000000000
 28    12.32000000000000    10.56000000000000    12.32000000000000
 28    12.32000000000000    12.32000000000000    10.56000000000000
 28    10.56000000000000    10.56000000000000    14.08000000000000
 28    10.56000000000000    12.32000000000000    15.84000000000000
 28    12.32000000000000    10.56000000000000    15.84000000000000
 28    12.32000000000000    12.32000000000000    14.08000000000000
 28    10.56000000000000    14.08000000000000     0.00000000000000
 28    10.56000000000000    15.84000000000000     1.76000000000000
 28    12.32000000000000    14.08000000000000     1.76000000000000
 28    12.32000000000000    15.84000000000000     0.00000000000000
 28    10.56000000000000    14.08000000000000     3.52000000000000
 28    10.56000000000000    15.84000000000000     5.28000000000000
 28    12.32000000000000    14.08000000000000     5.28000000000000
 28    12.32000000000000    15.84000000000000     3.52000000000000
 28    10.56000000000000    14.08000000000000     7.04000000000000
 28    10.56000000000000    15.84000000000000     8.80000000000000
 28    12.32000000000000    14.08000000000000     8.80000000000000
 28    12.32000000000000    15.84000000000000     7.04000000000000
 28    10.56000000000000    14.08000000000000    10.56000000000000
 28    10.56000000000000    15.84000000000000    12.32000000000000
 28    12.32000000000000    14.08000000000000    12.32000000000000
 28    12.32000000000000    15.84000000000000    10.56000000000000
 28    10.56000000000000    14.08000000000000    14.08000000000000
 28    10.56000000000000    15.84000000000000    15.84000000000000
 28    12.32000000000000    14.08000000000000    15.84000000000000
 28    12.32000000000000    15.84000000000000    14.08000000000000
 28    14.08000000000000     0.00000000000000     0.00000000000000
 28    14.08000000000000     1.76000000000000     1.76000000000000
 28    15.84000000000000     0.00000000000000     1.76000000000000
 28    15.84000000000000     1.76000000000000     0.00000000000000
 28    14.08000000000000     0.00000000000000     3.52000000000000
 28    14.08000000000000     1.76000000000000     5.28000000000000
 28    15.84000000000000     0.00000000000000     5.28000000000000
 28    15.84000000000000     1.76000000000000     3.52000000000000
 28    14.08000000000000     0.00000000000000     7.04000000000000
 28    14.08000000000000     1.76000000000000     8.80000000000000
 28    15.84000000000000     0.00000000000000     8.80000000000000
 28    15.84000000000000     1.76000000000000     7.04000000000000
 28    14.08000000000000     0.00000000000000    10.56000000000000
 28    14.08000000000000     1.76000000000000    12.32000000000000
 28    15.84000000000000     0.00000000000000    12.32000000000000
 28    15.84000000000000     1.76000000000000    10.56000000000000
 28    14.08000000000000     0.00000000000000    14.08000000000000
 28    14.08000000000000     1.76000000000000    15.84000000000000
 28    15.84000000000000     0.00000000000000    15.84000000000000
 28    15.84000000000000     1.76000000000000    14.08000000000000
 28    14.08000000000000     3.52000000000000     0.00000000000000
 28    14.08000000000000     5.28000000000000     1.76000000000000
 28    15.84000000000000     3.52000000000000     1.76000000000000
 28    15.84000000000000     5.28000000000000     0.00000000000000
 28    14.08000000000000     3.52000000000000     3.52000000000000
 28    14.08000000000000     5.28000000000000     5.28000000000000
 28    15.84000000000000     3.52000000000000     5.28000000000000
 28    15.84000000000000     5.28000000000000     3.52000000000000
 28    14.08000000000000     3.52000000000000     7.04000000000000
 28    14.08000000000000     5.28000000000000     8.80000000000000
 28    15.84000000000000     3.52000000000000     8.80000000000000
 28    15.84000000000000     5.28000000000000     7.04000000000000
 28    14.08000000000000     3.52000000000000    10.56000000000000
 28    14.08000000000000     5.28000000000000    12.32000000000000
 28    15.84000000000000     3.52000000000000    12.32000000000000
 28    15.84000000000000     5.28000000000000    10.56000000000000
 28    14.08000000000000     3.52000000000000    14.08000000000000
 28    14.08000000000000     5.28000000000000    15.84000000000000
 28    15.84000000000000     3.52000000000000    15.84000000000000
 28    15.84000000000000     5.28000000000000    14.08000000000000
 28    14.08000000000000     7.04000000000000     0.00000000000000
 28    14.08000000000000     8.80000000000000     1.76000000000000
 28    15.84000000000000     7.04000000000000     1.76000000000000
 28    15.84000000000000     8.80000000000000     0.00000000000000
 28    14.08000000000000     7.04000000000000     3.52000000000000