4000
Lattice="35.2 0.0 0.0 0.0 35.2 0.0 0.0 0.0 35.2" Properties=species:S:1:pos:R:3 Atoms.=T Timestep:=T 350100=T pbc="T T T"
Ni      35.35110000      35.18160000       0.07577020
Ni      35.24150000       1.72033000       1.86143000
Ni       1.82455000      35.26820000       1.93585000
Ni       1.85682000       1.74671000      -0.05870990
Ni      35.14940000      35.05670000       3.44194000
Ni       0.06498260       1.63252000       5.24546000
Ni       1.78221000       0.06100150       5.36675000
Ni       1.87385000       1.66332000       3.61901000
Ni       0.01812980       0.02973080       6.86292000
Ni      35.11990000       1.72223000       8.93021000
Ni       1.60169000       0.00928644       8.72926000
Ni       1.81815000       1.78689000       7.09138000
Ni      35.34490000       0.10026000      10.58000000
Ni      35.27550000       1.79461000      12.34950000
Ni       1.72272000      35.13650000      12.34730000
Ni       1.87947000       1.85479000      10.63190000
Ni      35.28590000      -0.19680900      14.03360000
Ni      35.24560000       1.72441000      15.98730000
Ni       1.71524000      35.04070000      15.84730000
Ni       1.61614000       1.66959000      14.24380000
Ni      -0.04111080      34.96520000      17.61700000
Ni      35.17400000       1.77923000      19.49260000
Ni       1.73971000      35.22630000      19.50950000
Ni       1.73572000       1.67461000      17.75080000
Ni      35.21310000       0.07823320      21.09040000
Ni      35.17940000       1.70721000      22.91690000
Ni       1.79064000      35.20010000      22.77400000
Ni       1.95214000       1.77057000      21.10390000
Ni      35.18470000       0.00828400      24.66710000
Ni      35.20930000       1.91495000      26.43340000
Ni       1.68801000       0.07450860      26.41470000
Ni       1.70283000       1.72812000      24.64420000
Ni      35.27750000      35.34070000      28.26250000
Ni       0.08236130       1.75106000      30.02180000
Ni       1.70229000      35.34970000      30.04990000
Ni       1.81223000       1.78637000      28.18420000
Ni      -0.00690116       0.03472720      31.76760000
Ni       0.09349750       1.96223000      33.49690000
Ni       1.76744000       0.08307690      33.38680000
Ni       1.99430000       1.78954000      31.73600000
Ni       0.13978200       3.42621000       0.01314610
Ni      -0.06662590       5.21113000       1.74103000
Ni       1.87262000       3.33653000       1.90098000
Ni       1.76673000       5.13486000       0.05598850
Ni      35.06680000       3.51058000       3.70106000
Ni       0.07712760       5.27068000       5.36503000
Ni       1.75212000       3.50796000       5.30806000
Ni       1.73021000       5.15632000       3.48084000
Ni      35.14870000       3.50779000       7.11310000
Ni      35.31230000       5.34622000       8.77242000
Ni       1.81198000       3.43801000       8.92064000
Ni       1.72605000       5.33262000       7.10611000
Ni       0.15771000       3.38076000      10.59010000
Ni      35.27720000       5.20342000      12.41100000
Ni       1.80880000       3.59913000      12.53760000
Ni       1.80682000       5.25140000      10.52870000
Ni       0.04564650       3.50319000      14.29580000
Ni      35.25700000       5.24731000      15.92700000
Ni       1.94139000       3.56548000      15.87720000
Ni       1.72242000       5.16475000      14.15030000
Ni      35.29280000       3.72994000      17.64250000
Ni      35.26540000       5.34584000      19.39570000
Ni       1.81414000       3.56323000      19.46340000
Ni       1.97933000       5.18237000      17.69110000
Ni       0.07617030       3.44797000      21.23170000
Ni      35.29050000       5.29161000      22.98380000
Ni       1.89455000       3.52361000      22.90360000
Ni       1.94250000       5.23010000      21.07980000
Ni      35.22830000       3.42542000      24.66230000
Ni      35.21760000       5.18669000      26.55990000
Ni       1.76944000       3.45208000      26.55350000
Ni       1.72671000       5.14231000      24.78130000
Ni      35.13040000       3.46975000      28.21850000
Ni      35.16740000       5.36280000      29.88870000
Ni       1.80610000       3.48673000      29.92900000
Ni       1.78871000       5.32848000      28.37490000
Ni      35.19940000       3.44201000      31.70770000
Ni       0.04108980       5.19050000      33.46040000
Ni       1.86800000       3.45093000      33.49770000
Ni       1.65148000       5.29703000      31.71600000
Ni       0.15048000       7.02156000       0.10365800
Ni       0.05903340       8.79934000       1.79036000
Ni       1.76276000       7.02750000       1.82738000
Ni       1.70640000       8.81302000      35.31210000
Ni      -0.09989090       7.01385000       3.46049000
Ni      35.20130000       8.75494000       5.33660000
Ni       1.75596000       6.88290000       5.25702000
Ni       1.61642000       8.68680000       3.57776000
Ni       0.09973320       7.01906000       7.12987000
Ni      35.32720000       8.85854000       8.76072000
Ni       1.88724000       7.03701000       8.84447000
Ni       1.62635000       8.81646000       6.87143000
Ni      -0.02382920       6.98090000      10.48400000
Ni      35.23480000       8.67338000      12.35520000
Ni       1.77143000       6.86086000      12.38850000
Ni       1.69202000       8.81047000      10.61170000
Ni      35.15380000       6.94825000      14.26840000
Ni      35.27210000       8.76647000      15.98760000
Ni       1.88452000       7.13844000      15.86420000
Ni       1.79845000       8.77569000      14.03530000
Ni      35.11780000       6.92947000      17.56460000
Ni       0.01141680       8.86797000      19.15280000
Ni       1.88633000       7.03463000      19.33730000
Ni       1.95609000       8.72727000      17.53220000
Ni       0.00902877       6.99804000      21.03920000
Ni      35.34390000       8.73936000      22.77640000
Ni       1.80474000       6.94772000      22.75430000
Ni       1.80184000       8.69776000      21.09220000
Ni      35.19550000       7.06376000      24.69190000
Ni      -0.05724680       8.71775000      26.38700000
Ni       1.88807000       7.04966000      26.49450000
Ni       1.83263000       8.73883000      24.58660000
Ni      -0.07851380       7.24910000      28.27860000
Ni      -0.00011095       8.93124000      30.05440000
Ni       1.87255000       7.01897000      29.89550000
Ni       1.77851000       8.84606000      28.18390000
Ni      35.18900000       7.17382000      31.75410000
Ni      -0.01780930       8.77569000      33.46890000
Ni       1.87942000       7.01411000      33.50430000
Ni       1.84550000       8.82278000      31.67140000
Ni      -0.00777116      10.54980000      -0.09169490
Ni      -0.03608190      12.35730000       1.74376000
Ni       1.89209000      10.60540000       1.99748000
Ni       1.88649000      12.26210000      35.42990000
Ni      -0.09249930      10.51220000       3.55885000
Ni      -0.05755130      12.38540000       5.10124000
Ni       1.85886000      10.60670000       5.05893000
Ni       1.67795000      12.47580000       3.64196000
Ni      35.21950000      10.71190000       7.01234000
Ni      35.27040000      12.45760000       8.88177000
Ni       1.69129000      10.65550000       8.82566000
Ni       1.65497000      12.46180000       7.09092000
Ni      35.12870000      10.69090000      10.59480000
Ni      35.18860000      12.38490000      12.37320000
Ni       1.79752000      10.64930000      12.39430000
Ni       1.72331000      12.53960000      10.67370000
Ni       0.07731100      10.51160000      13.87490000
Ni      35.22070000      12.24460000      15.75230000
Ni       1.79318000      10.56090000      15.77440000
Ni       1.77250000      12.34570000      14.06440000
Ni       0.05489480      10.60080000      17.58470000
Ni      35.10800000      12.36490000      19.31770000
Ni       1.76117000      10.56780000      19.32370000
Ni       1.74724000      12.36920000      17.53070000
Ni      35.30720000      10.44260000      20.87800000
Ni       0.09684110      12.18600000      22.84350000
Ni       1.78989000      10.48510000      22.78390000
Ni       1.77357000      12.40460000      21.03510000
Ni       0.14489800      10.63690000      24.66530000
Ni       0.03821920      12.33950000      26.32670000
Ni       1.62468000      10.51360000      26.41470000
Ni       1.79548000      12.52050000      24.54950000
Ni      35.17230000      10.71440000      28.18570000
Ni      -0.05809780      12.26350000      29.92650000
Ni       1.74169000      10.49900000      30.01340000
Ni       1.91312000      12.33400000      28.16770000
Ni      -0.03438140      10.64830000      31.70760000
Ni       0.06313160      12.43980000      33.54580000
Ni       1.78909000      10.58700000      33.52060000
Ni       1.77621000      12.21660000      31.69970000
Ni       0.04095470      14.11590000      35.39240000
Ni      35.18440000      15.78830000       1.84133000
Ni       1.68815000      14.04840000       1.95573000
Ni       1.92685000      15.79840000       0.12781100
Ni      -0.01577090      14.19290000       3.49971000
Ni      35.15480000      15.86100000       5.44698000
Ni       1.68586000      14.18390000       5.29588000
Ni       1.62383000      15.88720000       3.63464000
Ni      35.02910000      13.95340000       7.00865000
Ni      35.14770000      15.84510000       8.85055000
Ni       1.72193000      14.19360000       9.01722000
Ni       1.68965000      15.80830000       7.13378000
Ni      -0.03649900      14.15230000      10.65950000
Ni      -0.19588600      15.79810000      12.43910000
Ni       1.73956000      14.00540000      12.44910000
Ni       1.81738000      16.00540000      10.55790000
Ni      -0.05524630      14.22550000      14.03020000
Ni      -0.10614700      15.80180000      15.77230000
Ni       1.99151000      13.96760000      15.86610000
Ni       1.68179000      15.70260000      14.21190000
Ni       0.02057020      14.00580000      17.54960000
Ni      35.23730000      15.84670000      19.26570000
Ni       1.66840000      14.09190000      19.26710000
Ni       1.81468000      15.84370000      17.51380000
Ni      35.14540000      14.03240000      21.23670000
Ni       0.03424850      15.85800000      22.77350000
Ni       1.88522000      14.17200000      22.64850000
Ni       1.69331000      15.91010000      21.06860000
Ni       0.00038079      14.03970000      24.57490000
Ni      -0.08293450      15.80030000      26.33460000
Ni       1.77809000      14.13680000      26.40820000
Ni       1.80204000      15.89890000      24.47660000
Ni       0.08471250      14.09090000      28.07450000
Ni      -0.03901930      15.59880000      29.98110000
Ni       1.82649000      14.08270000      29.97950000
Ni       1.83168000      15.76180000      28.23840000
Ni       0.04008630      13.95850000      31.75130000
Ni       0.08127930      15.79280000      33.53650000
Ni       1.90681000      14.10680000      33.71750000
Ni       1.77846000      15.80940000      31.82360000
Ni      -0.00640199      17.55880000       0.17213000
Ni       0.08397560      19.43220000       1.81478000
Ni       1.69711000      17.59450000       1.86871000
Ni       1.93185000      19.41260000       0.04163230
Ni      35.16490000      17.68600000       3.59700000
Ni       0.01327470      19.41980000       5.35343000
Ni       1.64329000      17.75700000       5.38413000
Ni       1.73542000      19.36400000       3.50348000
Ni      35.08760000      17.51670000       7.29060000
Ni      -0.10765100      19.35380000       8.79997000
Ni       1.79480000      17.80380000       8.73376000
Ni       1.61976000      19.47830000       7.03852000
Ni      -0.10786900      17.60170000      10.58130000
Ni      -0.02633180      19.40710000      12.32060000
Ni       1.70447000      17.68880000      12.53360000
Ni       1.76628000      19.19170000      10.60030000
Ni      -0.19171900      17.84650000      14.16640000
Ni      35.13640000      19.41720000      15.94820000
Ni       1.63544000      17.47100000      15.96730000
Ni       1.76134000      19.32850000      14.35410000
Ni      35.07820000      17.67650000      17.66560000
Ni      -0.02383790      19.36000000      19.34510000
Ni       1.75341000      17.57690000      19.38220000
Ni       1.66651000      19.34580000      17.72450000
Ni      -0.10184000      17.63310000      21.01830000
Ni       0.14685200      19.37180000      22.90000000
Ni       1.75992000      17.56230000      22.78950000
Ni       1.67198000      19.38410000      20.92070000
Ni      34.98470000      17.53370000      24.46530000
Ni      35.15420000      19.14440000      26.40320000
Ni       1.70682000      17.26650000      26.31290000
Ni       1.74623000      19.21400000      24.53540000
Ni       0.11032100      17.44810000      28.09190000
Ni      35.29950000      19.27860000      29.86580000
Ni       1.77751000      17.56140000      29.91820000
Ni       1.62377000      19.27850000      28.15110000
Ni       0.03264500      17.47810000      31.79720000
Ni      35.13280000      19.48890000      33.51370000
Ni       1.85862000      17.69170000      33.56660000
Ni       1.78849000      19.42120000      31.52450000
Ni      -0.13704600      21.08550000      -0.02273270
Ni       0.09148190      23.01070000       1.81253000
Ni       1.76380000      21.20530000       1.60200000
Ni       1.58472000      22.84670000      -0.00388868
Ni      -0.06554440      21.21210000       3.47491000
Ni      -0.05900100      22.93860000       5.32886000
Ni       1.78367000      21.18200000       5.27466000
Ni       1.73009000      23.03080000       3.64870000
Ni      -0.04101860      21.14070000       7.04755000
Ni       0.11103100      23.12150000       8.72924000
Ni       1.66677000      21.20820000       8.83381000
Ni       1.53169000      22.92890000       7.12382000
Ni       0.08968180      21.17490000      10.67030000
Ni       0.03841150      22.90770000      12.32170000
Ni       1.79680000      21.01160000      12.31630000
Ni       1.80811000      23.00380000      10.62930000
Ni      -0.13677000      21.16010000      14.10580000
Ni      35.26910000      22.67930000      15.94960000
Ni       1.73775000      21.07910000      16.04450000
Ni       1.68684000      22.73310000      14.15910000
Ni      35.02810000      21.06320000      17.68210000
Ni      35.29920000      22.91690000      19.49920000
Ni       1.69664000      21.10250000      19.31310000
Ni       1.69472000      22.99100000      17.60290000
Ni      -0.09297480      21.01370000      21.23160000
Ni       0.02575360      22.76670000      22.88950000
Ni       1.58450000      21.14730000      23.05430000
Ni       1.69144000      22.66570000      21.18790000
Ni      -0.26159100      21.13820000      24.59300000
Ni      -0.08389210      22.82510000      26.36060000
Ni       1.41360000      21.02780000      26.27410000
Ni       1.76767000      22.96940000      24.67970000
Ni       0.01546930      21.29610000      28.22690000
Ni      35.39790000      23.01070000      29.90640000
Ni       1.77920000      21.19270000      29.79420000
Ni       1.79995000      22.82410000      27.91520000
Ni       0.05780640      21.06630000      31.59050000
Ni       0.05669550      22.78850000      33.33880000
Ni       1.74964000      20.98420000      33.51950000
Ni       1.78874000      22.77080000      31.60230000
Ni      35.17520000      24.46890000      -0.03724600
Ni      35.22390000      26.38070000       1.66380000
Ni       1.85031000      24.62340000       1.78896000
Ni       1.80992000      26.38380000      -0.03003260
Ni       0.08447620      24.75290000       3.62086000
Ni      35.29160000      26.56090000       5.32882000
Ni       1.88817000      24.66000000       5.37725000
Ni       1.81728000      26.48670000       3.34223000
Ni      -0.02718980      24.77070000       7.04912000
Ni       0.01302480      26.47440000       8.88502000
Ni       1.82775000      25.00360000       8.77676000
Ni       1.79301000      26.45990000       6.84778000
Ni      -0.09611530      24.80660000      10.55530000
Ni      35.24640000      26.31130000      12.42330000
Ni       1.79597000      24.59570000      12.43990000
Ni       1.84261000      26.33380000      10.60560000
Ni       0.00158068      24.52020000      14.22910000
Ni      35.00680000      26.34600000      16.03680000
Ni       1.61737000      24.63520000      15.93550000
Ni       1.69159000      26.43050000      14.06880000
Ni      35.02700000      24.57680000      17.62600000
Ni      34.97720000      26.29230000      19.32560000
Ni       1.74877000      24.52110000      19.36650000
Ni       1.58910000      26.29310000      17.57070000
Ni      35.25460000      24.57670000      21.16690000
Ni      35.11060000      26.42250000      22.89430000
Ni       1.87499000      24.75190000      23.02820000
Ni       1.86481000      26.32920000      21.15450000
Ni      35.22670000      24.71990000      24.68970000
Ni      35.18700000      26.45510000      26.35770000
Ni       1.84314000      24.76750000      26.23790000
Ni       1.71627000      26.50080000      24.47870000
Ni      35.40080000      24.61000000      28.12520000
Ni       0.02429330      26.42150000      29.93330000
Ni       1.80157000      24.70390000      29.68510000
Ni       1.67605000      26.54790000      27.96570000
Ni      35.20020000      24.55910000      31.60020000
Ni      35.20400000      26.42480000      33.31230000
Ni       1.79431000      24.56320000      33.29260000
Ni       1.68759000      26.32030000      31.49420000
Ni      35.30450000      28.03990000      35.32540000
Ni      35.33300000      29.98780000       1.80386000
Ni       2.04965000      28.37920000       1.59769000
Ni       1.74412000      29.95190000      35.14900000
Ni      35.30450000      28.31120000       3.50169000
Ni      35.21810000      29.84990000       5.43159000
Ni       1.77729000      28.15390000       5.23203000
Ni       1.88615000      30.00220000       3.55838000
Ni       0.13449900      28.21210000       7.09181000
Ni      35.27750000      29.86780000       8.79123000
Ni       1.90400000      28.15520000       8.84377000
Ni       1.81963000      29.86130000       6.78614000
Ni      35.18580000      28.19570000      10.61530000
Ni      35.17120000      29.82670000      12.36210000
Ni       1.68577000      28.20340000      12.21480000
Ni       1.74199000      29.93620000      10.54040000
Ni       0.06029310      28.16770000      14.03200000
Ni      35.27930000      29.89820000      15.68560000
Ni       1.71239000      28.02670000      15.84370000
Ni       1.97262000      29.91170000      13.99930000
Ni      35.08360000      28.05280000      17.72750000
Ni      35.22690000      29.83500000      19.42460000
Ni       1.73463000      28.19040000      19.47630000
Ni       1.76377000      29.85020000      17.59550000
Ni      35.14880000      27.97010000      21.09850000
Ni      35.16100000      29.89340000      22.76450000
Ni       1.75725000      28.25660000      22.88630000
Ni       1.79651000      30.02870000      21.01310000
Ni      -0.03055820      27.95760000      24.64620000
Ni      -0.08210330      29.93040000      26.42820000
Ni       1.77089000      28.23360000      26.38110000
Ni       1.60559000      29.90260000      24.59010000
Ni      35.10160000      28.25190000      28.14910000
Ni      -0.07449860      30.09530000      29.82220000
Ni       1.67239000      28.23640000      29.97650000
Ni       1.58454000      29.94220000      28.15410000
Ni      -0.06243120      28.21370000      31.70990000
Ni      35.12250000      29.97420000      33.54630000
Ni       1.81508000      28.16420000      33.17620000
Ni       1.65466000      30.02340000      31.71070000
Ni      35.28900000      31.61480000      35.23930000
Ni       0.14547800      33.53790000       1.61104000
Ni       1.82965000      31.88690000       1.70382000
Ni       1.82535000      33.62440000      -0.12149700
Ni      -0.04440980      31.83070000       3.34369000
Ni      -0.01212740      33.40000000       5.21291000
Ni       1.80730000      31.81560000       5.16082000
Ni       1.78100000      33.45380000       3.75115000
Ni      35.24940000      31.75910000       6.89018000
Ni      35.21150000      33.37020000       8.71504000
Ni       1.76710000      31.71640000       8.84397000
Ni       1.93256000      33.53990000       6.95883000
Ni      35.31240000      31.51400000      10.57170000
Ni      35.23420000      33.35700000      12.24080000
Ni       1.83218000      31.60540000      12.31690000
Ni       1.80885000      33.51400000      10.69660000
Ni      35.21740000      31.64570000      14.12880000
Ni      35.24990000      33.26710000      15.93490000
Ni       1.85533000      31.82010000      15.89090000
Ni       1.83031000      33.41680000      14.10200000
Ni      35.25110000      31.64900000      17.72600000
Ni      35.11530000      33.47980000      19.47150000
Ni       1.76361000      31.61410000      19.37680000
Ni       1.75882000      33.34200000      17.66450000
Ni      35.22610000      31.64070000      21.11350000
Ni      35.17380000      33.44340000      22.88700000
Ni       1.89227000      31.64100000      22.92150000
Ni       1.79267000      33.22500000      21.00340000
Ni      35.33040000      31.77690000      24.54180000
Ni      35.12890000      33.58210000      26.52720000
Ni       1.67370000      31.83650000      26.41990000
Ni       1.79596000      33.46410000      24.53160000
Ni      35.25380000      31.78000000      28.20440000
Ni      35.20990000      33.58570000      29.99050000
Ni       1.83977000      31.80140000      29.98210000
Ni       1.69389000      33.46550000      28.18070000
Ni       0.00853171      31.69680000      31.73790000
Ni      35.26700000      33.45470000      33.44860000
Ni       1.79392000      31.79260000      33.49400000
Ni       1.62782000      33.47810000      31.86610000
Ni       3.71645000      -0.02265480       0.07063300
Ni       3.65099000       1.65613000       1.82496000
Ni       5.46566000       0.02710860       1.97826000
Ni       5.37409000       1.71794000      -0.01600260
Ni       3.58993000      -0.04747420       3.46637000
Ni       3.53635000       1.70557000       5.44317000
Ni       5.37107000       0.15812800       5.17194000
Ni       5.31654000       1.79083000       3.61152000
Ni       3.55805000      35.35010000       6.99100000
Ni       3.54871000       1.56035000       8.81213000
Ni       5.25891000      35.19290000       8.78194000
Ni       5.30163000       1.82691000       7.06897000
Ni       3.58970000       0.02954570      10.54740000
Ni       3.39097000       1.70519000      12.40700000
Ni       5.39154000      -0.00567025      12.30550000
Ni       5.31164000       1.85185000      10.52980000
Ni       3.43794000      35.18290000      14.17150000
Ni       3.51113000       1.67494000      15.97760000
Ni       5.30069000      35.18200000      15.96010000
Ni       5.20095000       1.69000000      14.18660000
Ni       3.47855000      -0.06747340      17.78060000
Ni       3.31098000       1.76775000      19.33310000
Ni       5.46131000       0.04143540      19.27520000
Ni       5.28514000       1.61978000      17.66400000
Ni       3.56574000      -0.02607870      21.03580000
Ni       3.54541000       1.72686000      22.90450000
Ni       5.36582000       0.00796793      23.04440000
Ni       5.37616000       1.68701000      21.29090000
Ni       3.48729000      35.27890000      24.76370000
Ni       3.48213000       1.74812000      26.51200000
Ni       5.24214000      -0.03651850      26.52550000
Ni       5.28251000       1.77271000      24.73050000
Ni       3.39421000      -0.11019200      28.29040000
Ni       3.68676000       1.71935000      29.79470000
Ni       5.31994000      -0.09254270      29.93250000
Ni       5.22036000       1.69219000      28.16710000
Ni       3.52202000      -0.03517520      31.77090000
Ni       3.71754000       1.72766000      33.53340000
Ni       5.42838000      35.23680000      33.62780000
Ni       5.41925000       1.78551000      31.67190000
Ni       3.58068000       3.36596000      35.35380000
Ni       3.61439000       5.26291000       1.81171000
Ni       5.27627000       3.32036000       1.83633000
Ni       5.28343000       5.33906000       0.23947500
Ni       3.51528000       3.59495000       3.49023000
Ni       3.44783000       5.07662000       5.41550000
Ni       5.36964000       3.28616000       5.25835000
Ni       5.24692000       5.38506000       3.74483000
Ni       3.59580000       3.48001000       7.30172000
Ni       3.54612000       5.33729000       8.95306000
Ni       5.22666000       3.59563000       8.84755000
Ni       5.21781000       5.26395000       6.99566000
Ni       3.53419000       3.53973000      10.54580000
Ni       3.52254000       5.22400000      12.49430000
Ni       5.26349000       3.51471000      12.41440000
Ni       5.35481000       5.20716000      10.67210000
Ni       3.63093000       3.31385000      14.15360000
Ni       3.66579000       5.36062000      15.81870000
Ni       5.14691000       3.45872000      15.90750000
Ni       5.30004000       5.36300000      14.07590000
Ni       3.54089000       3.36863000      17.68930000
Ni       3.74848000       5.15406000      19.42160000
Ni       5.33653000       3.26867000      19.34690000
Ni       5.13548000       5.23288000      17.54950000
Ni       3.73933000       3.52399000      21.14350000
Ni       3.49110000       5.10880000      22.98970000
Ni       5.31147000       3.57563000      23.07500000
Ni       5.23577000       5.36864000      21.24620000
Ni       3.41623000       3.51437000      24.73300000
Ni       3.48625000       5.26118000      26.63150000
Ni       5.26755000       3.35627000      26.49390000
Ni       5.33915000       5.07734000      24.84600000
Ni       3.49504000       3.61119000      28.16090000
Ni       3.55677000       5.21076000      30.05290000
Ni       5.22095000       3.56833000      29.90480000
Ni       5.32782000       5.20071000      28.19670000
Ni       3.62860000       3.36230000      31.83130000
Ni       3.49320000       5.07106000      33.56270000
Ni       5.38200000       3.55360000      33.58980000
Ni       5.29621000       5.22529000      31.85490000
Ni       3.51135000       7.13130000       0.03449730
Ni       3.39737000       8.85237000       1.79497000
Ni       5.25582000       7.08273000       1.90581000
Ni       5.33106000       8.76855000      35.12290000
Ni       3.50300000       6.90935000       3.65803000
Ni       3.55432000       8.80142000       5.31502000
Ni       5.31067000       7.12009000       5.48771000
Ni       5.14678000       8.73925000       3.56909000
Ni       3.41759000       6.97365000       6.91610000
Ni       3.37712000       8.94228000       8.62267000
Ni       5.02677000       7.02484000       8.81666000
Ni       5.24628000       8.68044000       7.13619000
Ni       3.48071000       7.11123000      10.63240000
Ni       3.44187000       8.79518000      12.25780000
Ni       5.32544000       7.07627000      12.30540000
Ni       5.09176000       8.95392000      10.39070000
Ni       3.41301000       7.06963000      14.04260000
Ni       3.66373000       8.71259000      15.79390000
Ni       5.25688000       7.15626000      15.79800000
Ni       5.37356000       8.91265000      13.96410000
Ni       3.56121000       6.99508000      17.72780000
Ni       3.56997000       8.89012000      19.35810000
Ni       5.24048000       7.15528000      19.37740000
Ni       5.33030000       8.80576000      17.58960000
Ni       3.55468000       6.95824000      21.15280000
Ni       3.51841000       8.76650000      22.94220000
Ni       5.24008000       7.02669000      23.07580000
Ni       5.10024000       8.78820000      21.16320000
Ni       3.34612000       6.81117000      24.69500000
Ni       3.49371000       8.77511000      26.43200000
Ni       5.06992000       6.93671000      26.48320000
Ni       5.21381000       8.78438000      24.70930000
Ni       3.62816000       7.06609000      28.14470000
Ni       3.53742000       8.72528000      30.00560000
Ni       5.13026000       7.01076000      30.10780000
Ni       5.23687000       8.79263000      28.40230000
Ni       3.45287000       6.88755000      31.75400000
Ni       3.47811000       8.97363000      33.47180000
Ni       5.15854000       6.94546000      33.48620000
Ni       5.08701000       8.89113000      31.80590000
Ni       3.57578000      10.65620000      35.33330000
Ni       3.54391000      12.33530000       1.86270000
Ni       5.24851000      10.52190000       1.79961000
Ni       5.41657000      12.26140000      35.16650000
Ni       3.62297000      10.62430000       3.56211000
Ni       3.44818000      12.32150000       5.25789000
Ni       5.18797000      10.43850000       5.41507000
Ni       5.32238000      12.38770000       3.59818000
Ni       3.38257000      10.65370000       6.90344000
Ni       3.49178000      12.36200000       8.86959000
Ni       5.23852000      10.67880000       8.69341000
Ni       5.24977000      12.47910000       7.02498000
Ni       3.48458000      10.58110000      10.60080000
Ni       3.65076000      12.31010000      12.44390000
Ni       5.28684000      10.52600000      12.23030000
Ni       5.36969000      12.34610000      10.51320000
Ni       3.59475000      10.51410000      13.96410000
Ni       3.61269000      12.10140000      15.94100000
Ni       5.34704000      10.50750000      15.87100000
Ni       5.34971000      12.18090000      14.04720000
Ni       3.51405000      10.60240000      17.60240000
Ni       3.47021000      12.24970000      19.44150000
Ni       5.35708000      10.48460000      19.26170000
Ni       5.33979000      12.25000000      17.60140000
Ni       3.53537000      10.59770000      21.13420000
Ni       3.56317000      12.35760000      23.04480000
Ni       5.42150000      10.55030000      22.93360000
Ni       5.37523000      12.19070000      21.06480000
Ni       3.49297000      10.54380000      24.60350000
Ni       3.55886000      12.30380000      26.33660000
Ni       5.15517000      10.50470000      26.33460000
Ni       5.38205000      12.41940000      24.53240000
Ni       3.56603000      10.45640000      28.23060000