4000
Lattice="35.20358532641215 0.0 0.0 0.0 35.20358532641215 0.0 0.0 0.0 35.20358532641215" Properties=species:S:1:pos:R:3:masses:R:1:momenta:R:3:id:I:1:type:I:1 comment="LAMMPS data file via write_data, version 29 Aug 2024, timestep = 35000, units = metal" pbc="T T T"
Ni      -0.00536682       0.01739891       0.00224749      58.71000002      -0.18926369      -0.46610130      -0.37890088        1        1
Ni       0.01611294       1.74114588       1.76496492      58.71000002      -0.11958074       0.17524006      -0.28698880        2        1
Ni       1.76855461      -0.03038258       1.74769378      58.71000002      -0.39431138      -0.09247508       0.02420298        3        1
Ni       1.76836720       1.76602037       0.00110448      58.71000002      -0.19731696       0.04838379       0.17185731        4        1
Ni      -0.00084049      -0.00112883       3.50309367      58.71000002       0.02066117       0.43826158       0.00217847        5        1
Ni       0.01826691       1.74696527       5.27097437      58.71000002       0.09642006      -0.30518853       0.21384103        6        1
Ni       1.77036938       0.00994061       5.26505201      58.71000002       0.16628188      -0.27229799      -0.22139830        7        1
Ni       1.77719237       1.75586299       3.51504909      58.71000002       0.04819756      -0.11178149       0.60558764        8        1
Ni       0.01093635      -0.00151054       7.04460811      58.71000002      -0.19874574      -0.00695836      -0.17831564        9        1
Ni       0.01926074       1.76937532       8.77774194      58.71000002       0.20899157       0.28767557       0.09400922       10        1
Ni       1.77668285      -0.00721806       8.79919371      58.71000002      -0.09409239      -0.38559772      -0.32450971       11        1
Ni       1.77197892       1.74961740       7.02907635      58.71000002      -0.16588365       0.00145409       0.04495802       12        1
Ni       0.01109601      -0.00680953      10.55536734      58.71000002      -0.45831236       0.14933343       0.29158674       13        1
Ni       0.00911286       1.78274684      12.32219695      58.71000002      -0.63947229      -0.17741751       0.50863530       14        1
Ni       1.76082398       0.00874350      12.33474539      58.71000002       0.11508813       0.08033318      -0.39800814       15        1
Ni       1.75590694       1.76634784      10.57473649      58.71000002      -0.17220713       0.06742656      -0.08303212       16        1
Ni      -0.01772270       0.01271351      14.09882255      58.71000002      -0.09466299       0.39058353      -0.19753320       17        1
Ni      -0.00295175       1.74462064      15.82051854      58.71000002       0.19469281      -0.18379160      -0.16569031       18        1
Ni       1.76899855      -0.01484514      15.82230035      58.71000002       0.11483764      -0.10383146      -0.01009636       19        1
Ni       1.77803107       1.76709728      14.07515649      58.71000002      -0.03306150       0.12546619       0.16168929       20        1
Ni       0.00656520      -0.00023636      17.61942662      58.71000002       0.00206670      -0.24797550      -0.17972798       21        1
Ni       0.00694699       1.78608281      19.36617483      58.71000002       0.41222147       0.31322572      -0.44763104       22        1
Ni       1.77156437       0.01702665      19.35146405      58.71000002       0.14254371      -0.41210964      -0.26509096       23        1
Ni       1.75793523       1.75640919      17.58067879      58.71000002      -0.14666620       0.17796219      -0.13652751       24        1
Ni       0.01749691      -0.00090142      21.11057883      58.71000002       0.20493221      -0.04953425      -0.18349873       25        1
Ni      -0.01347494       1.75822647      22.89900947      58.71000002       0.16284581      -0.18304525      -0.02617323       26        1
Ni       1.74737591       0.00616137      22.88728089      58.71000002       0.26522261       0.10080643      -0.03980519       27        1
Ni       1.78482911       1.76213120      21.13725420      58.71000002       0.28250757       0.01793823      -0.57103642       28        1
Ni      -0.00254535      -0.00868224      24.64618906      58.71000002       0.16792688      -0.28508198      -0.19786195       29        1
Ni      -0.00160361       1.74964101      26.42330398      58.71000002      -0.28561508      -0.22991936      -0.03905069       30        1
Ni       1.76353724       0.00113599      26.39733691      58.71000002      -0.53368434      -0.07453106      -0.19638156       31        1
Ni       1.75466690       1.76341615      24.64157592      58.71000002      -0.35052319      -0.21394305       0.28972527       32        1
Ni       0.02654884      -0.02113175      28.15101965      58.71000002       0.21192626       0.25765684       0.34022666       33        1
Ni       0.00126582       1.75836701      29.92049118      58.71000002       0.06451755      -0.24226023      -0.10217435       34        1
Ni       1.74398061       0.00812776      29.94665677      58.71000002      -0.03748242      -0.27353222      -0.32458240       35        1
Ni       1.75182463       1.76042307      28.19490896      58.71000002      -0.15132072      -0.45471682      -0.03960736       36        1
Ni      -0.00779379       0.00035661      31.67543897      58.71000002       0.26107438      -0.23317508       0.33807421       37        1
Ni      -0.00045103       1.79030533      33.43429528      58.71000002      -0.35233355      -0.19165035      -0.13693210       38        1
Ni       1.74841481       0.01246978      33.43861672      58.71000002      -0.27379821      -0.03603461       0.00664235       39        1
Ni       1.75213900       1.76775306      31.69650075      58.71000002      -0.21478551      -0.44802197       0.24202536       40        1
Ni       0.00859419       3.52850083      -0.01143542      58.71000002       0.10604923      -0.17094971       0.05597069       41        1
Ni      -0.00089956       5.26784592       1.74581038      58.71000002      -0.14849075      -0.30236974       0.10848813       42        1
Ni       1.74826526       3.51128868       1.75966335      58.71000002      -0.44500544       0.04115818      -0.60495562       43        1
Ni       1.76683252       5.27608600      -0.01883224      58.71000002      -0.07511943       0.14197763      -0.10248470       44        1
Ni       0.02066457       3.51771211       3.53826271      58.71000002      -0.08248405      -0.26920652       0.00190898       45        1
Ni       0.01401756       5.29598026       5.30055268      58.71000002      -0.43698788      -0.21631611      -0.15178896       46        1
Ni       1.78369343       3.52537360       5.30163620      58.71000002      -0.17844646       0.53440573      -0.00519914       47        1
Ni       1.73666442       5.27663692       3.52770364      58.71000002       0.12093834      -0.15839120      -0.42761439       48        1
Ni       0.01314538       3.51649572       7.04109131      58.71000002      -0.18715521       0.03894075      -0.13851565       49        1
Ni       0.01148053       5.27000170       8.80366034      58.71000002       0.47287049       0.08748659       0.10836593       50        1
Ni       1.76754937       3.50957003       8.79077618      58.71000002       0.23193493       0.02388366      -0.27685298       51        1
Ni       1.77117684       5.30573443       7.04074114      58.71000002      -0.07407280      -0.20430211      -0.06882439       52        1
Ni      -0.00323884       3.51463981      10.55370266      58.71000002       0.24795622       0.42780814      -0.07023027       53        1
Ni       0.00339589       5.28934800      12.33143178      58.71000002      -0.21134290       0.49988986      -0.00044229       54        1
Ni       1.75778257       3.52242026      12.33793688      58.71000002       0.24949505      -0.16465942       0.07376569       55        1
Ni       1.76768554       5.24314909      10.55864500      58.71000002      -0.28573518      -0.23048692      -0.13407879       56        1
Ni       0.01265563       3.51580201      14.07816627      58.71000002      -0.04673846       0.09949602      -0.21638874       57        1
Ni       0.03528884       5.26483305      15.85089642      58.71000002      -0.37906718      -0.28358958       0.05863494       58        1
Ni       1.76653590       3.51803101      15.84244876      58.71000002       0.13526725      -0.03294758      -0.18752036       59        1
Ni       1.77719396       5.27150407      14.08018576      58.71000002      -0.01477005      -0.22375578      -0.03057589       60        1
Ni       0.02797668       3.54829371      17.59332430      58.71000002      -0.23899265       0.00944031      -0.64604377       61        1
Ni      -0.00524755       5.27058341      19.36276466      58.71000002      -0.18840957       0.05813730      -0.16079728       62        1
Ni       1.78203891       3.50934731      19.36223710      58.71000002       0.14159548      -0.15678210       0.21537440       63        1
Ni       1.80177523       5.30745936      17.59418315      58.71000002      -0.35685278      -0.10321723      -0.01339236       64        1
Ni      -0.00807995       3.54286180      21.11128137      58.71000002      -0.16217233      -0.08680762       0.71433385       65        1
Ni      -0.00359947       5.27947317      22.87488620      58.71000002       0.08114817      -0.20429107       0.23796363       66        1
Ni       1.75980387       3.49947854      22.87665011      58.71000002      -0.05909802       0.17467802       0.18649506       67        1
Ni       1.76654349       5.25324649      21.13228396      58.71000002       0.08251325       0.25609589       0.18571097       68        1
Ni       0.01164705       3.49967495      24.65732365      58.71000002      -0.22267069      -0.08578414      -0.32421521       69        1
Ni       0.00596590       5.26594561      26.38869481      58.71000002      -0.07867447       0.21472148      -0.00552521       70        1
Ni       1.77530349       3.51833933      26.40975596      58.71000002       0.26293210       0.06388326      -0.08662126       71        1
Ni       1.76305203       5.26816897      24.63823633      58.71000002      -0.45770585      -0.24303911       0.26110764       72        1
Ni       0.03033138       3.51939038      28.16191452      58.71000002       0.07659550      -0.25331535      -0.25880152       73        1
Ni      -0.00461036       5.28286525      29.93104444      58.71000002       0.55282843       0.01170685      -0.05564420       74        1
Ni       1.76385871       3.52658046      29.92093653      58.71000002      -0.39776120      -0.21104811      -0.07484006       75        1
Ni       1.74624260       5.29162328      28.16220846      58.71000002       0.25542553      -0.05727759       0.30786770       76        1
Ni      -0.00014548       3.51508000      31.67355872      58.71000002      -0.34200088       0.33237423      -0.27281727       77        1
Ni      -0.01212444       5.27904717      33.46193634      58.71000002      -0.54006868      -0.07012832      -0.32136391       78        1
Ni       1.75883151       3.53104541      33.44695224      58.71000002       0.01700560      -0.50119252       0.62138652       79        1
Ni       1.74592933       5.29637806      31.68970333      58.71000002      -0.01840874       0.20065383      -0.18872910       80        1
Ni       0.00073575       7.03808788       0.00845349      58.71000002      -0.11613897      -0.16881319      -0.04508929       81        1
Ni      -0.01860533       8.78009543       1.75250174      58.71000002      -0.35904319      -0.02661311       0.01241574       82        1
Ni       1.77042283       7.02806141       1.76508308      58.71000002       0.03876764      -0.10909104       0.46178878       83        1
Ni       1.74146961       8.78942206       0.03936943      58.71000002      -0.36120227       0.41671727       0.05351823       84        1
Ni      -0.01556165       7.04076105       3.48581405      58.71000002      -0.05783463      -0.26205277       0.10024221       85        1
Ni       0.00821710       8.80257199       5.26588574      58.71000002      -0.16753491      -0.38851661       0.02146803       86        1
Ni       1.75128331       7.05618638       5.27014663      58.71000002       0.32563144       0.12274275      -0.05193812       87        1
Ni       1.75564869       8.80039667       3.48545959      58.71000002      -0.19897093      -0.04447763      -0.16363460       88        1
Ni      -0.01316904       7.03713668       7.04353478      58.71000002      -0.05867586      -0.41642239      -0.31584141       89        1
Ni      -0.01033960       8.79404456       8.80309956      58.71000002      -0.04430321      -0.04237096      -0.20730188       90        1
Ni       1.76106206       7.04860887       8.82033708      58.71000002      -0.19273306       0.00639199      -0.13260531       91        1
Ni       1.75957134       8.79537727       7.04072018      58.71000002       0.59002861      -0.56721410      -0.10377072       92        1
Ni       0.02290365       7.03045791      10.57510232      58.71000002      -0.27324725      -0.36955416      -0.11852498       93        1
Ni       0.00181933       8.76799277      12.34904553      58.71000002      -0.39147590      -0.17399867      -0.16304976       94        1
Ni       1.77593699       7.02410899      12.32674019      58.71000002      -0.42635362       0.01727823       0.18908794       95        1
Ni       1.75124841       8.79312902      10.57424896      58.71000002      -0.25480846       0.39060854       0.33603724       96        1
Ni       0.00791220       7.01199394      14.11521801      58.71000002      -0.10688656       0.13618506      -0.24728252       97        1
Ni      -0.00046162       8.77610955      15.85441774      58.71000002      -0.27404774      -0.38251069      -0.18078125       98        1
Ni       1.82513630       7.03590923      15.87574621      58.71000002      -0.06812139       0.05505249      -0.27830228       99        1
Ni       1.75585282       8.76921303      14.09430118      58.71000002       0.09468129       0.31896337       0.09757456      100        1
Ni       0.03677385       7.03174155      17.59648880      58.71000002      -0.16768542       0.19702465       0.36125318      101        1
Ni       0.01074517       8.77246642      19.36852315      58.71000002      -0.25595617      -0.11207569      -0.00121727      102        1
Ni       1.79589856       7.00902683      19.33581646      58.71000002      -0.06431964       0.43024114       0.15581231      103        1
Ni       1.79781075       8.77112912      17.60551147      58.71000002      -0.03299410      -0.24742565      -0.02737225      104        1
Ni       0.00885167       7.04476856      21.11384705      58.71000002      -0.07845471       0.18000162      -0.16137179      105        1
Ni       0.01667744       8.81312300      22.88274262      58.71000002       0.01163390       0.10892565       0.13844141      106        1
Ni       1.76292952       7.03918078      22.88106171      58.71000002       0.22023260       0.25383158       0.09035981      107        1
Ni       1.77762202       8.79038250      21.13210038      58.71000002      -0.03966845      -0.22104376       0.40431603      108        1
Ni       0.01289048       7.03808635      24.64853064      58.71000002       0.28371267      -0.13825724       0.25805381      109        1
Ni      -0.01909600       8.79968522      26.41203353      58.71000002      -0.26467160      -0.21802876       0.34056092      110        1
Ni       1.76196218       7.02762698      26.42172903      58.71000002       0.08285573      -0.05255439      -0.14356768      111        1
Ni       1.76420923       8.80966282      24.65423279      58.71000002       0.10196565      -0.47369922      -0.19796318      112        1
Ni       0.01417148       7.05541791      28.16001862      58.71000002      -0.04841679      -0.00288586      -0.18532280      113        1
Ni       0.02090582       8.81653240      29.93148244      58.71000002      -0.00481812       0.17722863       0.15686471      114        1
Ni       1.75425043       7.05085665      29.95895676      58.71000002       0.10798561      -0.13314400      -0.08452787      115        1
Ni       1.75751977       8.81407647      28.15240641      58.71000002      -0.27048753       0.12098936      -0.11083285      116        1
Ni      -0.01481811       7.06029279      31.69553437      58.71000002       0.25042132       0.49713630      -0.21184358      117        1
Ni      -0.00158633       8.80013632      33.46039891      58.71000002       0.25791111      -0.07079370       0.10258000      118        1
Ni       1.73413606       7.04718593      33.45812002      58.71000002       0.21935970      -0.19712347      -0.32350494      119        1
Ni       1.74262212       8.79088076      31.70310803      58.71000002      -0.02487538       0.17097393       0.01317120      120        1
Ni      -0.01192854      10.53201945       0.00922116      58.71000002      -0.25900889      -0.18468377       0.59836979      121        1
Ni      -0.00676079      12.31610802       1.76454099      58.71000002      -0.31245396       0.12642701       0.10097110      122        1
Ni       1.74229218      10.55971176       1.75280747      58.71000002       0.16864464      -0.09319923      -0.41177513      123        1
Ni       1.74784130      12.33400984       0.00230094      58.71000002       0.01071763       0.39306312       0.39713453      124        1
Ni      -0.01144920      10.57139931       3.50277328      58.71000002      -0.37266186       0.25265528       0.39355556      125        1
Ni      -0.01610527      12.32047521       5.29998418      58.71000002       0.27145262       0.32189936       0.23976113      126        1
Ni       1.73856965      10.54253413       5.27060149      58.71000002      -0.19992965       0.25824870       0.07135799      127        1
Ni       1.73208849      12.33390168       3.51824428      58.71000002       0.21389951      -0.04988773       0.05550626      128        1
Ni      -0.00329909      10.53744719       7.03852215      58.71000002      -0.10168943       0.10913734      -0.15285931      129        1
Ni      -0.01160369      12.30975881       8.78456319      58.71000002       0.07481628       0.04094161       0.02468155      130        1
Ni       1.77088112      10.53613345       8.80265551      58.71000002       0.17071284      -0.21424288      -0.26697497      131        1
Ni       1.75192579      12.30869721       7.04021686      58.71000002       0.35433491       0.07150838       0.40987655      132        1
Ni      -0.00727407      10.55667363      10.57629305      58.71000002       0.30254923       0.22478572       0.02895360      133        1
Ni      -0.01122115      12.30349214      12.32920516      58.71000002      -0.39631797       0.01003035       0.10134413      134        1
Ni       1.76666898      10.54182615      12.34254481      58.71000002       0.12492681       0.27267434      -0.15805022      135        1
Ni       1.73245409      12.29754774      10.56782990      58.71000002      -0.22500934       0.35022228       0.06642867      136        1
Ni      -0.01175562      10.54962623      14.08204072      58.71000002       0.12715305       0.37498589       0.02057748      137        1
Ni      -0.00338381      12.30315082      15.84135714      58.71000002      -0.04271297       0.17928934      -0.03006454      138        1
Ni       1.75971836      10.55678419      15.84526791      58.71000002       0.36528653      -0.67087954       0.02896372      139        1
Ni       1.73617795      12.29446919      14.04174450      58.71000002      -0.00785734       0.21670644      -0.14726594      140        1
Ni       0.01529597      10.54509200      17.61061963      58.71000002      -0.65331956      -0.00200473      -0.06471882      141        1
Ni       0.02862668      12.33777209      19.35131620      58.71000002       0.03053355       0.08605672      -0.62510635      142        1
Ni       1.77174098      10.53844157      19.37050820      58.71000002      -0.19654236      -0.14316519       0.27935947      143        1
Ni       1.76715567      12.29445928      17.58725088      58.71000002       0.24020908      -0.14570697       0.20861703      144        1
Ni       0.01710261      10.55264689      21.10567778      58.71000002      -0.38639282      -0.01485568       0.35638241      145        1
Ni      -0.01730864      12.30460206      22.86149705      58.71000002      -0.05318504       0.43139276       0.18757952      146        1
Ni       1.76504989      10.54609524      22.87868923      58.71000002      -0.15498752       0.13273530       0.25948855      147        1
Ni       1.76971522      12.31244154      21.10771476      58.71000002      -0.22160230      -0.28665963       0.27062815      148        1
Ni      -0.01189095      10.55099568      24.62609571      58.71000002       0.05624114      -0.13332389       0.15337527      149        1
Ni       0.00176742      12.31236934      26.39775428      58.71000002       0.01409527      -0.25006960      -0.16071502      150        1
Ni       1.76765280      10.55583693      26.39239678      58.71000002      -0.16522049      -0.17446944       0.45011934      151        1
Ni       1.75192695      12.29015280      24.61616908      58.71000002       0.22394126       0.03192297      -0.30927696      152        1
Ni      -0.01621518      10.56543407      28.16435222      58.71000002      -0.05929237      -0.03380752       0.38666445      153        1
Ni      -0.00925952      12.31616238      29.92011794      58.71000002      -0.42148707       0.04665044      -0.19404602      154        1
Ni       1.77694240      10.56594126      29.93950637      58.71000002       0.60108831      -0.47571834      -0.32685023      155        1
Ni       1.75040558      12.31952850      28.14010062      58.71000002       0.37315235      -0.22080496      -0.07913827      156        1
Ni      -0.00633481      10.55618672      31.70634630      58.71000002       0.20377400      -0.00739727      -0.36736590      157        1
Ni      -0.00464728      12.31324629      33.44421508      58.71000002       0.01163231       0.36493626      -0.23143862      158        1
Ni       1.76117526      10.52663606      33.46927815      58.71000002      -0.01423943       0.60537812       0.00685268      159        1
Ni       1.75150266      12.32679633      31.69558841      58.71000002       0.05807166      -0.09291461      -0.00716547      160        1
Ni      -0.01134767      14.07497010      -0.00187580      58.71000002       0.23996489       0.39269099       0.32343934      161        1
Ni      -0.00718582      15.83696362       1.78106673      58.71000002      -0.44075007       0.21928650       0.03821843      162        1
Ni       1.76547708      14.09079778       1.75808229      58.71000002       0.02813593      -0.18972650      -0.24568372      163        1
Ni       1.74194962      15.83383490       0.01377467      58.71000002       0.10993991      -0.00910175      -0.07054728      164        1
Ni      -0.01405316      14.08328842       3.52869093      58.71000002      -0.24568063       0.23891779       0.12523741      165        1
Ni      -0.00617029      15.82396937       5.29342902      58.71000002       0.14857611       0.38694160       0.25549740      166        1
Ni       1.75747662      14.09276219       5.25630290      58.71000002      -0.54769834       0.25952464      -0.24719115      167        1
Ni       1.75912311      15.85786838       3.52131423      58.71000002      -0.49601473       0.09601707       0.09468532      168        1
Ni       0.01893652      14.08929733       7.06606288      58.71000002       0.29655134      -0.08412986      -0.03856514      169        1
Ni      -0.01379190      15.85085008       8.78987670      58.71000002       0.39489395      -0.31398522      -0.12815599      170        1
Ni       1.76622735      14.05836946       8.81128908      58.71000002      -0.12485407      -0.15921997      -0.14271677      171        1
Ni       1.76153112      15.80310854       7.05056281      58.71000002       0.29323961      -0.09290568       0.68910957      172        1
Ni      -0.00018690      14.07477495      10.54109659      58.71000002       0.28261292      -0.08837426       0.21285841      173        1
Ni      -0.04274407      15.86809673      12.31068448      58.71000002       0.27770696      -0.03174506       0.18890977      174        1
Ni       1.72723114      14.09751184      12.32984881      58.71000002       0.00218835       0.17928887      -0.12849026      175        1
Ni       1.75570011      15.84788440      10.56106356      58.71000002       0.07741049       0.17033843       0.45041070      176        1
Ni      -0.00733350      14.08158844      14.10854371      58.71000002      -0.35898020      -0.17165402      -0.33379647      177        1
Ni      -0.00201686      15.84020612      15.83337954      58.71000002       0.05764389      -0.22445994      -0.26654105      178        1
Ni       1.78033469      14.07329221      15.82656464      58.71000002      -0.52489488       0.19321047      -0.38295255      179        1
Ni       1.73937404      15.85234388      14.08484164      58.71000002       0.20513003       0.09743411      -0.09970886      180        1
Ni       0.01683358      14.08047894      17.58365854      58.71000002      -0.25893090       0.11223530       0.15369997      181        1
Ni      -0.00331882      15.83164693      19.36025942      58.71000002       0.21627549       0.12302257      -0.33225182      182        1
Ni       1.77837710      14.08068304      19.34729033      58.71000002      -0.05432575      -0.19410329       0.23650770      183        1
Ni       1.77695632      15.83959865      17.58186998      58.71000002      -0.04112779      -0.01100692       0.61293299      184        1
Ni      -0.02055912      14.07250424      21.09764342      58.71000002      -0.09494884       0.32315605      -0.00272939      185        1
Ni      -0.01528656      15.85029888      22.87240130      58.71000002      -0.05037504       0.18328038       0.46223815      186        1
Ni       1.76559115      14.06253175      22.85373468      58.71000002       0.12220349      -0.02536112      -0.24407813      187        1
Ni       1.75526966      15.82308340      21.11376794      58.71000002       0.64690883      -0.16681721       0.24090616      188        1
Ni       0.01088089      14.07541409      24.63797039      58.71000002      -0.15285198       0.33813717       1.07018715      189        1
Ni      -0.00539871      15.82403324      26.38561462      58.71000002      -0.45035408       0.01426957      -0.06263722      190        1
Ni       1.76305993      14.07470527      26.36694927      58.71000002      -0.36532700      -0.00046192       0.49943936      191        1
Ni       1.74370385      15.82760106      24.62553496      58.71000002       0.17555845      -0.07637291      -0.00331038      192        1
Ni       0.00505173      14.08496533      28.14620725      58.71000002      -0.08544871      -0.15059985       0.07903031      193        1
Ni      -0.00328094      15.81348086      29.90325158      58.71000002      -0.04963143       0.09787154       0.07108316      194        1
Ni       1.75561911      14.06236287      29.93067527      58.71000002       0.05607122      -0.34988246      -0.10463200      195        1
Ni       1.76303455      15.83750063      28.16797337      58.71000002      -0.15772047      -0.25183333       0.04291246      196        1
Ni       0.00861826      14.05124891      31.65548088      58.71000002       0.24066295       0.37737344      -0.60810842      197        1
Ni       0.01441897      15.84032151      33.41741897      58.71000002      -0.12992235       0.23158716       0.13796737      198        1
Ni       1.73792227      14.07627986      33.45475607      58.71000002      -0.15127167      -0.12215115      -0.20358520      199        1
Ni       1.77446786      15.79985836      31.67927582      58.71000002      -0.38114073       0.52704165       0.24907792      200        1
Ni      -0.01205887      17.59972098       0.00671489      58.71000002      -0.02887301       0.12996287       0.29279831      201        1
Ni      -0.01396927      19.35994894       1.76949037      58.71000002      -0.30952433      -0.16139963       0.40258786      202        1
Ni       1.75856330      17.60718574       1.76170605      58.71000002       0.15469272      -0.21014355       0.31733120      203        1
Ni       1.76238138      19.33942739      -0.00795855      58.71000002      -0.32270286      -0.45058148       0.03505583      204        1
Ni       0.00218601      17.58538826       3.52859997      58.71000002       0.03816733      -0.02901972      -0.20053119      205        1
Ni       0.01096229      19.34936615       5.29280739      58.71000002       0.00526651      -0.03909296      -0.07884686      206        1
Ni       1.76619840      17.60109498       5.25755426      58.71000002      -0.28206080       0.07786678      -0.24272648      207        1
Ni       1.78262884      19.33403607       3.51933642      58.71000002      -0.14834338       0.23970981      -0.23393395      208        1
Ni       0.00276122      17.57246897       7.03477410      58.71000002      -0.22208366      -0.00958784       0.40954105      209        1
Ni      -0.00526721      19.35200365       8.79404114      58.71000002      -0.05841930      -0.14952811      -0.39762293      210        1
Ni       1.74927053      17.59361819       8.80055513      58.71000002      -0.10856994       0.04469632       0.33068759      211        1
Ni       1.76294772      19.35465466       7.03086849      58.71000002      -0.11626285       0.08471681      -0.48554147      212        1