(written by ASE)

3998 atoms
1 atom types

0.0      35.200000000000003  xlo xhi
0.0      35.200000000000003  ylo yhi
0.0      35.200000000000003  zlo zhi

Atoms # atomic

     1   1                       0                       0                       0
     2   1                       0                    1.76                    1.76
     3   1                    1.76                       0                    1.76
     4   1                    1.76                    1.76                       0
     5   1                       0                       0                    3.52
     6   1                       0                    1.76      5.2800000000000002
     7   1                    1.76                       0      5.2800000000000002
     8   1                    1.76                    1.76                    3.52
     9   1                       0                       0                    7.04
    10   1                       0                    1.76      8.8000000000000007
    11   1                    1.76                       0      8.8000000000000007
    12   1                    1.76                    1.76                    7.04
    13   1                       0                       0                   10.56
    14   1                       0                    1.76                   12.32
    15   1                    1.76                       0                   12.32
    16   1                    1.76                    1.76                   10.56
    17   1                       0                       0                   14.08
    18   1                       0                    1.76                   15.84
    19   1                    1.76                       0                   15.84
    20   1                    1.76                    1.76                   14.08
    21   1                       0                       0      17.600000000000001
    22   1                       0                    1.76      19.360000000000003
    23   1                    1.76                       0      19.360000000000003
    24   1                    1.76                    1.76      17.600000000000001
    25   1                       0                       0      21.120000000000001
    26   1                       0                    1.76      22.880000000000003
    27   1                    1.76                       0      22.880000000000003
    28   1                    1.76                    1.76      21.120000000000001
    29   1                       0                       0      24.640000000000001
    30   1                       0                    1.76      26.400000000000002
    31   1                    1.76                       0      26.400000000000002
    32   1                    1.76                    1.76      24.640000000000001
    33   1                       0                       0                   28.16
    34   1                       0                    1.76      29.920000000000002
    35   1                    1.76                       0      29.920000000000002
    36   1                    1.76                    1.76                   28.16
    37   1                       0                       0                   31.68
    38   1                       0                    1.76      33.439999999999998
    39   1                    1.76                       0      33.439999999999998
    40   1                    1.76                    1.76                   31.68
    41   1                       0                    3.52                       0
    42   1                       0      5.2800000000000002                    1.76
    43   1                    1.76                    3.52                    1.76
    44   1                    1.76      5.2800000000000002                       0
    45   1                       0                    3.52                    3.52
    46   1                       0      5.2800000000000002      5.2800000000000002
    47   1                    1.76                    3.52      5.2800000000000002
    48   1                    1.76      5.2800000000000002                    3.52
    49   1                       0                    3.52                    7.04
    50   1                       0      5.2800000000000002      8.8000000000000007
    51   1                    1.76                    3.52      8.8000000000000007
    52   1                    1.76      5.2800000000000002                    7.04
    53   1                       0                    3.52                   10.56
    54   1                       0      5.2800000000000002                   12.32
    55   1                    1.76                    3.52                   12.32
    56   1                    1.76      5.2800000000000002                   10.56
    57   1                       0                    3.52                   14.08
    58   1                       0      5.2800000000000002                   15.84
    59   1                    1.76                    3.52                   15.84
    60   1                    1.76      5.2800000000000002                   14.08
    61   1                       0                    3.52      17.600000000000001
    62   1                       0      5.2800000000000002      19.360000000000003
    63   1                    1.76                    3.52      19.360000000000003
    64   1                    1.76      5.2800000000000002      17.600000000000001
    65   1                       0                    3.52      21.120000000000001
    66   1                       0      5.2800000000000002      22.880000000000003
    67   1                    1.76                    3.52      22.880000000000003
    68   1                    1.76      5.2800000000000002      21.120000000000001
    69   1                       0                    3.52      24.640000000000001
    70   1                       0      5.2800000000000002      26.400000000000002
    71   1                    1.76                    3.52      26.400000000000002
    72   1                    1.76      5.2800000000000002      24.640000000000001
    73   1                       0                    3.52                   28.16
    74   1                       0      5.2800000000000002      29.920000000000002
    75   1                    1.76                    3.52      29.920000000000002
    76   1                    1.76      5.2800000000000002                   28.16
    77   1                       0                    3.52                   31.68
    78   1                       0      5.2800000000000002      33.439999999999998
    79   1                    1.76                    3.52      33.439999999999998
    80   1                    1.76      5.2800000000000002                   31.68
    81   1                       0                    7.04                       0
    82   1                       0      8.8000000000000007                    1.76
    83   1                    1.76                    7.04                    1.76
    84   1                    1.76      8.8000000000000007                       0
    85   1                       0                    7.04                    3.52
    86   1                       0      8.8000000000000007      5.2800000000000002
    87   1                    1.76                    7.04      5.2800000000000002
    88   1                    1.76      8.8000000000000007                    3.52
    89   1                       0                    7.04                    7.04
    90   1                       0      8.8000000000000007      8.8000000000000007
    91   1                    1.76                    7.04      8.8000000000000007
    92   1                    1.76      8.8000000000000007                    7.04
    93   1                       0                    7.04                   10.56
    94   1                       0      8.8000000000000007                   12.32
    95   1                    1.76                    7.04                   12.32
    96   1                    1.76      8.8000000000000007                   10.56
    97   1                       0                    7.04                   14.08
    98   1                       0      8.8000000000000007                   15.84
    99   1                    1.76                    7.04                   15.84
   100   1                    1.76      8.8000000000000007                   14.08
   101   1                       0                    7.04      17.600000000000001
   102   1                       0      8.8000000000000007      19.360000000000003
   103   1                    1.76                    7.04      19.360000000000003
   104   1                    1.76      8.8000000000000007      17.600000000000001
   105   1                       0                    7.04      21.120000000000001
   106   1                       0      8.8000000000000007      22.880000000000003
   107   1                    1.76                    7.04      22.880000000000003
   108   1                    1.76      8.8000000000000007      21.120000000000001
   109   1                       0                    7.04      24.640000000000001
   110   1                       0      8.8000000000000007      26.400000000000002
   111   1                    1.76                    7.04      26.400000000000002
   112   1                    1.76      8.8000000000000007      24.640000000000001
   113   1                       0                    7.04                   28.16
   114   1                       0      8.8000000000000007      29.920000000000002
   115   1                    1.76                    7.04      29.920000000000002
   116   1                    1.76      8.8000000000000007                   28.16
   117   1                       0                    7.04                   31.68
   118   1                       0      8.8000000000000007      33.439999999999998
   119   1                    1.76                    7.04      33.439999999999998
   120   1                    1.76      8.8000000000000007                   31.68
   121   1                       0                   10.56                       0
   122   1                       0                   12.32                    1.76
   123   1                    1.76                   10.56                    1.76
   124   1                    1.76                   12.32                       0
   125   1                       0                   10.56                    3.52
   126   1                       0                   12.32      5.2800000000000002
   127   1                    1.76                   10.56      5.2800000000000002
   128   1                    1.76                   12.32                    3.52
   129   1                       0                   10.56                    7.04
   130   1                       0                   12.32      8.8000000000000007
   131   1                    1.76                   10.56      8.8000000000000007
   132   1                    1.76                   12.32                    7.04
   133   1                       0                   10.56                   10.56
   134   1                       0                   12.32                   12.32
   135   1                    1.76                   10.56                   12.32
   136   1                    1.76                   12.32                   10.56
   137   1                       0                   10.56                   14.08
   138   1                       0                   12.32                   15.84
   139   1                    1.76                   10.56                   15.84
   140   1                    1.76                   12.32                   14.08
   141   1                       0                   10.56      17.600000000000001
   142   1                       0                   12.32      19.360000000000003
   143   1                    1.76                   10.56      19.360000000000003
   144   1                    1.76                   12.32      17.600000000000001
   145   1                       0                   10.56      21.120000000000001
   146   1                       0                   12.32      22.880000000000003
   147   1                    1.76                   10.56      22.880000000000003
   148   1                    1.76                   12.32      21.120000000000001
   149   1                       0                   10.56      24.640000000000001
   150   1                       0                   12.32      26.400000000000002
   151   1                    1.76                   10.56      26.400000000000002
   152   1                    1.76                   12.32      24.640000000000001
   153   1                       0                   10.56                   28.16
   154   1                       0                   12.32      29.920000000000002
   155   1                    1.76                   10.56      29.920000000000002
   156   1                    1.76                   12.32                   28.16
   157   1                       0                   10.56                   31.68
   158   1                       0                   12.32      33.439999999999998
   159   1                    1.76                   10.56      33.439999999999998
   160   1                    1.76                   12.32                   31.68
   161   1                       0                   14.08                       0
   162   1                       0                   15.84                    1.76
   163   1                    1.76                   14.08                    1.76
   164   1                    1.76                   15.84                       0
   165   1                       0                   14.08                    3.52
   166   1                       0                   15.84      5.2800000000000002
   167   1                    1.76                   14.08      5.2800000000000002
   168   1                    1.76                   15.84                    3.52
   169   1                       0                   14.08                    7.04
   170   1                       0                   15.84      8.8000000000000007
   171   1                    1.76                   14.08      8.8000000000000007
   172   1                    1.76                   15.84                    7.04
   173   1                       0                   14.08                   10.56
   174   1                       0                   15.84                   12.32
   175   1                    1.76                   14.08                   12.32
   176   1                    1.76                   15.84                   10.56
   177   1                       0                   14.08                   14.08
   178   1                       0                   15.84                   15.84
   179   1                    1.76                   14.08                   15.84
   180   1                    1.76                   15.84                   14.08
   181   1                       0                   14.08      17.600000000000001
   182   1                       0                   15.84      19.360000000000003
   183   1                    1.76                   14.08      19.360000000000003
   184   1                    1.76                   15.84      17.600000000000001
   185   1                       0                   14.08      21.120000000000001
   186   1                       0                   15.84      22.880000000000003
   187   1                    1.76                   14.08      22.880000000000003
   188   1                    1.76                   15.84      21.120000000000001
   189   1                       0                   14.08      24.640000000000001
   190   1                       0                   15.84      26.400000000000002
   191   1                    1.76                   14.08      26.400000000000002
   192   1                    1.76                   15.84      24.640000000000001
   193   1                       0                   14.08                   28.16
   194   1                       0                   15.84      29.920000000000002
   195   1                    1.76                   14.08      29.920000000000002
   196   1                    1.76                   15.84                   28.16
   197   1                       0                   14.08                   31.68
   198   1                       0                   15.84      33.439999999999998
   199   1                    1.76                   14.08      33.439999999999998
   200   1                    1.76                   15.84                   31.68
   201   1                       0      17.600000000000001                       0
   202   1                       0      19.360000000000003                    1.76
   203   1                    1.76      17.600000000000001                    1.76
   204   1                    1.76      19.360000000000003                       0
   205   1                       0      17.600000000000001                    3.52
   206   1                       0      19.360000000000003      5.2800000000000002
   207   1                    1.76      17.600000000000001      5.2800000000000002
   208   1                    1.76      19.360000000000003                    3.52
   209   1                       0      17.600000000000001                    7.04
   210   1                       0      19.360000000000003      8.8000000000000007
   211   1                    1.76      17.600000000000001      8.8000000000000007
   212   1                    1.76      19.360000000000003                    7.04
   213   1                       0      17.600000000000001                   10.56
   214   1                       0      19.360000000000003                   12.32
   215   1                    1.76      17.600000000000001                   12.32
   216   1                    1.76      19.360000000000003                   10.56
   217   1                       0      17.600000000000001                   14.08
   218   1                       0      19.360000000000003                   15.84
   219   1                    1.76      17.600000000000001                   15.84
   220   1                    1.76      19.360000000000003                   14.08
   221   1                       0      17.600000000000001      17.600000000000001
   222   1                       0      19.360000000000003      19.360000000000003
   223   1                    1.76      17.600000000000001      19.360000000000003
   224   1                    1.76      19.360000000000003      17.600000000000001
   225   1                       0      17.600000000000001      21.120000000000001
   226   1                       0      19.360000000000003      22.880000000000003
   227   1                    1.76      17.600000000000001      22.880000000000003
   228   1                    1.76      19.360000000000003      21.120000000000001
   229   1                       0      17.600000000000001      24.640000000000001
   230   1                       0      19.360000000000003      26.400000000000002
   231   1                    1.76      17.600000000000001      26.400000000000002
   232   1                    1.76      19.360000000000003      24.640000000000001
   233   1                       0      17.600000000000001                   28.16
   234   1                       0      19.360000000000003      29.920000000000002
   235   1                    1.76      17.600000000000001      29.920000000000002
   236   1                    1.76      19.360000000000003                   28.16
   237   1                       0      17.600000000000001                   31.68
   238   1                       0      19.360000000000003      33.439999999999998
   239   1                    1.76      17.600000000000001      33.439999999999998
   240   1                    1.76      19.360000000000003                   31.68
   241   1                       0      21.120000000000001                       0
   242   1                       0      22.880000000000003                    1.76
   243   1                    1.76      21.120000000000001                    1.76
   244   1                    1.76      22.880000000000003                       0
   245   1                       0      21.120000000000001                    3.52
   246   1                       0      22.880000000000003      5.2800000000000002
   247   1                    1.76      21.120000000000001      5.2800000000000002
   248   1                    1.76      22.880000000000003                    3.52
   249   1                       0      21.120000000000001                    7.04
   250   1                       0      22.880000000000003      8.8000000000000007
   251   1                    1.76      21.120000000000001      8.8000000000000007
   252   1                    1.76      22.880000000000003                    7.04
   253   1                       0      21.120000000000001                   10.56
   254   1                       0      22.880000000000003                   12.32
   255   1                    1.76      21.120000000000001                   12.32
   256   1                    1.76      22.880000000000003                   10.56
   257   1                       0      21.120000000000001                   14.08
   258   1                       0      22.880000000000003                   15.84
   259   1                    1.76      21.120000000000001                   15.84
   260   1                    1.76      22.880000000000003                   14.08
   261   1                       0      21.120000000000001      17.600000000000001
   262   1                       0      22.880000000000003      19.360000000000003
   263   1                    1.76      21.120000000000001      19.360000000000003
   264   1                    1.76      22.880000000000003      17.600000000000001
   265   1                       0      21.120000000000001      21.120000000000001
   266   1                       0      22.880000000000003      22.880000000000003
   267   1                    1.76      21.120000000000001      22.880000000000003
   268   1                    1.76      22.880000000000003      21.120000000000001
   269   1                       0      21.120000000000001      24.640000000000001
   270   1                       0      22.880000000000003      26.400000000000002
   271   1                    1.76      21.120000000000001      26.400000000000002
   272   1                    1.76      22.880000000000003      24.640000000000001
   273   1                       0      21.120000000000001                   28.16
   274   1                       0      22.880000000000003      29.920000000000002
   275   1                    1.76      21.120000000000001      29.920000000000002
   276   1                    1.76      22.880000000000003                   28.16
   277   1                       0      21.120000000000001                   31.68
   278   1                       0      22.880000000000003      33.439999999999998
   279   1                    1.76      21.120000000000001      33.439999999999998
   280   1                    1.76      22.880000000000003                   31.68
   281   1                       0      24.640000000000001                       0
   282   1                       0      26.400000000000002                    1.76
   283   1                    1.76      24.640000000000001                    1.76
   284   1                    1.76      26.400000000000002                       0
   285   1                       0      24.640000000000001                    3.52
   286   1                       0      26.400000000000002      5.2800000000000002
   287   1                    1.76      24.640000000000001      5.2800000000000002
   288   1                    1.76      26.400000000000002                    3.52
   289   1                       0      24.640000000000001                    7.04
   290   1                       0      26.400000000000002      8.8000000000000007
   291   1                    1.76      24.640000000000001      8.8000000000000007
   292   1                    1.76      26.400000000000002                    7.04
   293   1                       0      24.640000000000001                   10.56
   294   1                       0      26.400000000000002                   12.32
   295   1                    1.76      24.640000000000001                   12.32
   296   1                    1.76      26.400000000000002                   10.56
   297   1                       0      24.640000000000001                   14.08
   298   1                       0      26.400000000000002                   15.84
   299   1                    1.76      24.640000000000001                   15.84
   300   1                    1.76      26.400000000000002                   14.08
   301   1                       0      24.640000000000001      17.600000000000001
   302   1                       0      26.400000000000002      19.360000000000003
   303   1                    1.76      24.640000000000001      19.360000000000003
   304   1                    1.76      26.400000000000002      17.600000000000001
   305   1                       0      24.640000000000001      21.120000000000001
   306   1                       0      26.400000000000002      22.880000000000003
   307   1                    1.76      24.640000000000001      22.880000000000003
   308   1                    1.76      26.400000000000002      21.120000000000001
   309   1                       0      24.640000000000001      24.640000000000001
   310   1                       0      26.400000000000002      26.400000000000002
   311   1                    1.76      24.640000000000001      26.400000000000002
   312   1                    1.76      26.400000000000002      24.640000000000001
   313   1                       0      24.640000000000001                   28.16
   314   1                       0      26.400000000000002      29.920000000000002
   315   1                    1.76      24.640000000000001      29.920000000000002
   316   1                    1.76      26.400000000000002                   28.16
   317   1                       0      24.640000000000001                   31.68
   318   1                       0      26.400000000000002      33.439999999999998
   319   1                    1.76      24.640000000000001      33.439999999999998
   320   1                    1.76      26.400000000000002                   31.68
   321   1                       0                   28.16                       0
   322   1                       0      29.920000000000002                    1.76
   323   1                    1.76                   28.16                    1.76
   324   1                    1.76      29.920000000000002                       0
   325   1                       0                   28.16                    3.52
   326   1                       0      29.920000000000002      5.2800000000000002
   327   1                    1.76                   28.16      5.2800000000000002
   328   1                    1.76      29.920000000000002                    3.52
   329   1                       0                   28.16                    7.04
   330   1                       0      29.920000000000002      8.8000000000000007
   331   1                    1.76                   28.16      8.8000000000000007
   332   1                    1.76      29.920000000000002                    7.04
   333   1                       0                   28.16                   10.56
   334   1                       0      29.920000000000002                   12.32
   335   1                    1.76                   28.16                   12.32
   336   1                    1.76      29.920000000000002                   10.56
   337   1                       0                   28.16                   14.08
   338   1                       0      29.920000000000002                   15.84
   339   1                    1.76                   28.16                   15.84
   340   1                    1.76      29.920000000000002                   14.08
   341   1                       0                   28.16      17.600000000000001
   342   1                       0      29.920000000000002      19.360000000000003
   343   1                    1.76                   28.16      19.360000000000003
   344   1                    1.76      29.920000000000002      17.600000000000001
   345   1                       0                   28.16      21.120000000000001
   346   1                       0      29.920000000000002      22.880000000000003
   347   1                    1.76                   28.16      22.880000000000003
   348   1                    1.76      29.920000000000002      21.120000000000001
   349   1                       0                   28.16      24.640000000000001
   350   1                       0      29.920000000000002      26.400000000000002
   351   1                    1.76                   28.16      26.400000000000002
   352   1                    1.76      29.920000000000002      24.640000000000001
   353   1                       0                   28.16                   28.16
   354   1                       0      29.920000000000002      29.920000000000002
   355   1                    1.76                   28.16      29.920000000000002
   356   1                    1.76      29.920000000000002                   28.16
   357   1                       0                   28.16                   31.68
   358   1                       0      29.920000000000002      33.439999999999998
   359   1                    1.76                   28.16      33.439999999999998