ANIMSTEPS 6
CRYSTAL
PRIMVEC
 35.20000000000000 0.00000000000000 0.00000000000000
 0.00000000000000 35.20000000000000 0.00000000000000
 0.00000000000000 0.00000000000000 35.20000000000000
PRIMCOORD 1
 3998 1
 28     0.00000000000000     0.00000000000000     0.00000000000000
 28     0.00000000000000     1.76000000000000     1.76000000000000
 28     1.76000000000000     0.00000000000000     1.76000000000000
 28     1.76000000000000     1.76000000000000     0.00000000000000
 28     0.00000000000000     0.00000000000000     3.52000000000000
 28     0.00000000000000     1.76000000000000     5.28000000000000
 28     1.76000000000000     0.00000000000000     5.28000000000000
 28     1.76000000000000     1.76000000000000     3.52000000000000
 28     0.00000000000000     0.00000000000000     7.04000000000000
 28     0.00000000000000     1.76000000000000     8.80000000000000
 28     1.76000000000000     0.00000000000000     8.80000000000000
 28     1.76000000000000     1.76000000000000     7.04000000000000
 28     0.00000000000000     0.00000000000000    10.56000000000000
 28     0.00000000000000     1.76000000000000    12.32000000000000
 28     1.76000000000000     0.00000000000000    12.32000000000000
 28     1.76000000000000     1.76000000000000    10.56000000000000
 28     0.00000000000000     0.00000000000000    14.08000000000000
 28     0.00000000000000     1.76000000000000    15.84000000000000
 28     1.76000000000000     0.00000000000000    15.84000000000000
 28     1.76000000000000     1.76000000000000    14.08000000000000
 28     0.00000000000000     0.00000000000000    17.60000000000000
 28     0.00000000000000     1.76000000000000    19.36000000000000
 28     1.76000000000000     0.00000000000000    19.36000000000000
 28     1.76000000000000     1.76000000000000    17.60000000000000
 28     0.00000000000000     0.00000000000000    21.12000000000000
 28     0.00000000000000     1.76000000000000    22.88000000000000
 28     1.76000000000000     0.00000000000000    22.88000000000000
 28     1.76000000000000     1.76000000000000    21.12000000000000
 28     0.00000000000000     0.00000000000000    24.64000000000000
 28     0.00000000000000     1.76000000000000    26.40000000000000
 28     1.76000000000000     0.00000000000000    26.40000000000000
 28     1.76000000000000     1.76000000000000    24.64000000000000
 28     0.00000000000000     0.00000000000000    28.16000000000000
 28     0.00000000000000     1.76000000000000    29.92000000000000
 28     1.76000000000000     0.00000000000000    29.92000000000000
 28     1.76000000000000     1.76000000000000    28.16000000000000
 28     0.00000000000000     0.00000000000000    31.68000000000000
 28     0.00000000000000     1.76000000000000    33.44000000000000
 28     1.76000000000000     0.00000000000000    33.44000000000000
 28     1.76000000000000     1.76000000000000    31.68000000000000
 28     0.00000000000000     3.52000000000000     0.00000000000000
 28     0.00000000000000     5.28000000000000     1.76000000000000
 28     1.76000000000000     3.52000000000000     1.76000000000000
 28     1.76000000000000     5.28000000000000     0.00000000000000
 28     0.00000000000000     3.52000000000000     3.52000000000000
 28     0.00000000000000     5.28000000000000     5.28000000000000
 28     1.76000000000000     3.52000000000000     5.28000000000000
 28     1.76000000000000     5.28000000000000     3.52000000000000
 28     0.00000000000000     3.52000000000000     7.04000000000000
 28     0.00000000000000     5.28000000000000     8.80000000000000
 28     1.76000000000000     3.52000000000000     8.80000000000000
 28     1.76000000000000     5.28000000000000     7.04000000000000
 28     0.00000000000000     3.52000000000000    10.56000000000000
 28     0.00000000000000     5.28000000000000    12.32000000000000
 28     1.76000000000000     3.52000000000000    12.32000000000000
 28     1.76000000000000     5.28000000000000    10.56000000000000
 28     0.00000000000000     3.52000000000000    14.08000000000000
 28     0.00000000000000     5.28000000000000    15.84000000000000
 28     1.76000000000000     3.52000000000000    15.84000000000000
 28     1.76000000000000     5.28000000000000    14.08000000000000
 28     0.00000000000000     3.52000000000000    17.60000000000000
 28     0.00000000000000     5.28000000000000    19.36000000000000
 28     1.76000000000000     3.52000000000000    19.36000000000000
 28     1.76000000000000     5.28000000000000    17.60000000000000
 28     0.00000000000000     3.52000000000000    21.12000000000000
 28     0.00000000000000     5.28000000000000    22.88000000000000
 28     1.76000000000000     3.52000000000000    22.88000000000000
 28     1.76000000000000     5.28000000000000    21.12000000000000
 28     0.00000000000000     3.52000000000000    24.64000000000000
 28     0.00000000000000     5.28000000000000    26.40000000000000
 28     1.76000000000000     3.52000000000000    26.40000000000000
 28     1.76000000000000     5.28000000000000    24.64000000000000
 28     0.00000000000000     3.52000000000000    28.16000000000000
 28     0.00000000000000     5.28000000000000    29.92000000000000
 28     1.76000000000000     3.52000000000000    29.92000000000000
 28     1.76000000000000     5.28000000000000    28.16000000000000
 28     0.00000000000000     3.52000000000000    31.68000000000000
 28     0.00000000000000     5.28000000000000    33.44000000000000
 28     1.76000000000000     3.52000000000000    33.44000000000000
 28     1.76000000000000     5.28000000000000    31.68000000000000
 28     0.00000000000000     7.04000000000000     0.00000000000000
 28     0.00000000000000     8.80000000000000     1.76000000000000
 28     1.76000000000000     7.04000000000000     1.76000000000000
 28     1.76000000000000     8.80000000000000     0.00000000000000
 28     0.00000000000000     7.04000000000000     3.52000000000000
 28     0.00000000000000     8.80000000000000     5.28000000000000
 28     1.76000000000000     7.04000000000000     5.28000000000000
 28     1.76000000000000     8.80000000000000     3.52000000000000
 28     0.00000000000000     7.04000000000000     7.04000000000000
 28     0.00000000000000     8.80000000000000     8.80000000000000
 28     1.76000000000000     7.04000000000000     8.80000000000000
 28     1.76000000000000     8.80000000000000     7.04000000000000
 28     0.00000000000000     7.04000000000000    10.56000000000000
 28     0.00000000000000     8.80000000000000    12.32000000000000
 28     1.76000000000000     7.04000000000000    12.32000000000000
 28     1.76000000000000     8.80000000000000    10.56000000000000
 28     0.00000000000000     7.04000000000000    14.08000000000000
 28     0.00000000000000     8.80000000000000    15.84000000000000
 28     1.76000000000000     7.04000000000000    15.84000000000000
 28     1.76000000000000     8.80000000000000    14.08000000000000
 28     0.00000000000000     7.04000000000000    17.60000000000000
 28     0.00000000000000     8.80000000000000    19.36000000000000
 28     1.76000000000000     7.04000000000000    19.36000000000000
 28     1.76000000000000     8.80000000000000    17.60000000000000
 28     0.00000000000000     7.04000000000000    21.12000000000000
 28     0.00000000000000     8.80000000000000    22.88000000000000
 28     1.76000000000000     7.04000000000000    22.88000000000000
 28     1.76000000000000     8.80000000000000    21.12000000000000
 28     0.00000000000000     7.04000000000000    24.64000000000000
 28     0.00000000000000     8.80000000000000    26.40000000000000
 28     1.76000000000000     7.04000000000000    26.40000000000000
 28     1.76000000000000     8.80000000000000    24.64000000000000
 28     0.00000000000000     7.04000000000000    28.16000000000000
 28     0.00000000000000     8.80000000000000    29.92000000000000
 28     1.76000000000000     7.04000000000000    29.92000000000000
 28     1.76000000000000     8.80000000000000    28.16000000000000
 28     0.00000000000000     7.04000000000000    31.68000000000000
 28     0.00000000000000     8.80000000000000    33.44000000000000
 28     1.76000000000000     7.04000000000000    33.44000000000000
 28     1.76000000000000     8.80000000000000    31.68000000000000
 28     0.00000000000000    10.56000000000000     0.00000000000000
 28     0.00000000000000    12.32000000000000     1.76000000000000
 28     1.76000000000000    10.56000000000000     1.76000000000000
 28     1.76000000000000    12.32000000000000     0.00000000000000
 28     0.00000000000000    10.56000000000000     3.52000000000000
 28     0.00000000000000    12.32000000000000     5.28000000000000
 28     1.76000000000000    10.56000000000000     5.28000000000000
 28     1.76000000000000    12.32000000000000     3.52000000000000
 28     0.00000000000000    10.56000000000000     7.04000000000000
 28     0.00000000000000    12.32000000000000     8.80000000000000
 28     1.76000000000000    10.56000000000000     8.80000000000000
 28     1.76000000000000    12.32000000000000     7.04000000000000
 28     0.00000000000000    10.56000000000000    10.56000000000000
 28     0.00000000000000    12.32000000000000    12.32000000000000
 28     1.76000000000000    10.56000000000000    12.32000000000000
 28     1.76000000000000    12.32000000000000    10.56000000000000
 28     0.00000000000000    10.56000000000000    14.08000000000000
 28     0.00000000000000    12.32000000000000    15.84000000000000
 28     1.76000000000000    10.56000000000000    15.84000000000000
 28     1.76000000000000    12.32000000000000    14.08000000000000
 28     0.00000000000000    10.56000000000000    17.60000000000000
 28     0.00000000000000    12.32000000000000    19.36000000000000
 28     1.76000000000000    10.56000000000000    19.36000000000000
 28     1.76000000000000    12.32000000000000    17.60000000000000
 28     0.00000000000000    10.56000000000000    21.12000000000000
 28     0.00000000000000    12.32000000000000    22.88000000000000
 28     1.76000000000000    10.56000000000000    22.88000000000000
 28     1.76000000000000    12.32000000000000    21.12000000000000
 28     0.00000000000000    10.56000000000000    24.64000000000000
 28     0.00000000000000    12.32000000000000    26.40000000000000
 28     1.76000000000000    10.56000000000000    26.40000000000000
 28     1.76000000000000    12.32000000000000    24.64000000000000
 28     0.00000000000000    10.56000000000000    28.16000000000000
 28     0.00000000000000    12.32000000000000    29.92000000000000
 28     1.76000000000000    10.56000000000000    29.92000000000000
 28     1.76000000000000    12.32000000000000    28.16000000000000
 28     0.00000000000000    10.56000000000000    31.68000000000000
 28     0.00000000000000    12.32000000000000    33.44000000000000
 28     1.76000000000000    10.56000000000000    33.44000000000000
 28     1.76000000000000    12.32000000000000    31.68000000000000
 28     0.00000000000000    14.08000000000000     0.00000000000000
 28     0.00000000000000    15.84000000000000     1.76000000000000
 28     1.76000000000000    14.08000000000000     1.76000000000000
 28     1.76000000000000    15.84000000000000     0.00000000000000
 28     0.00000000000000    14.08000000000000     3.52000000000000
 28     0.00000000000000    15.84000000000000     5.28000000000000
 28     1.76000000000000    14.08000000000000     5.28000000000000
 28     1.76000000000000    15.84000000000000     3.52000000000000
 28     0.00000000000000    14.08000000000000     7.04000000000000
 28     0.00000000000000    15.84000000000000     8.80000000000000
 28     1.76000000000000    14.08000000000000     8.80000000000000
 28     1.76000000000000    15.84000000000000     7.04000000000000
 28     0.00000000000000    14.08000000000000    10.56000000000000
 28     0.00000000000000    15.84000000000000    12.32000000000000
 28     1.76000000000000    14.08000000000000    12.32000000000000
 28     1.76000000000000    15.84000000000000    10.56000000000000
 28     0.00000000000000    14.08000000000000    14.08000000000000
 28     0.00000000000000    15.84000000000000    15.84000000000000
 28     1.76000000000000    14.08000000000000    15.84000000000000
 28     1.76000000000000    15.84000000000000    14.08000000000000
 28     0.00000000000000    14.08000000000000    17.60000000000000
 28     0.00000000000000    15.84000000000000    19.36000000000000
 28     1.76000000000000    14.08000000000000    19.36000000000000
 28     1.76000000000000    15.84000000000000    17.60000000000000
 28     0.00000000000000    14.08000000000000    21.12000000000000
 28     0.00000000000000    15.84000000000000    22.88000000000000
 28     1.76000000000000    14.08000000000000    22.88000000000000
 28     1.76000000000000    15.84000000000000    21.12000000000000
 28     0.00000000000000    14.08000000000000    24.64000000000000
 28     0.00000000000000    15.84000000000000    26.40000000000000
 28     1.76000000000000    14.08000000000000    26.40000000000000
 28     1.76000000000000    15.84000000000000    24.64000000000000
 28     0.00000000000000    14.08000000000000    28.16000000000000
 28     0.00000000000000    15.84000000000000    29.92000000000000
 28     1.76000000000000    14.08000000000000    29.92000000000000
 28     1.76000000000000    15.84000000000000    28.16000000000000
 28     0.00000000000000    14.08000000000000    31.68000000000000
 28     0.00000000000000    15.84000000000000    33.44000000000000
 28     1.76000000000000    14.08000000000000    33.44000000000000
 28     1.76000000000000    15.84000000000000    31.68000000000000
 28     0.00000000000000    17.60000000000000     0.00000000000000
 28     0.00000000000000    19.36000000000000     1.76000000000000
 28     1.76000000000000    17.60000000000000     1.76000000000000
 28     1.76000000000000    19.36000000000000     0.00000000000000
 28     0.00000000000000    17.60000000000000     3.52000000000000
 28     0.00000000000000    19.36000000000000     5.28000000000000
 28     1.76000000000000    17.60000000000000     5.28000000000000
 28     1.76000000000000    19.36000000000000     3.52000000000000
 28     0.00000000000000    17.60000000000000     7.04000000000000
 28     0.00000000000000    19.36000000000000     8.80000000000000
 28     1.76000000000000    17.60000000000000     8.80000000000000
 28     1.76000000000000    19.36000000000000     7.04000000000000
 28     0.00000000000000    17.60000000000000    10.56000000000000
 28     0.00000000000000    19.36000000000000    12.32000000000000
 28     1.76000000000000    17.60000000000000    12.32000000000000
 28     1.76000000000000    19.36000000000000    10.56000000000000
 28     0.00000000000000    17.60000000000000    14.08000000000000
 28     0.00000000000000    19.36000000000000    15.84000000000000
 28     1.76000000000000    17.60000000000000    15.84000000000000
 28     1.76000000000000    19.36000000000000    14.08000000000000
 28     0.00000000000000    17.60000000000000    17.60000000000000
 28     0.00000000000000    19.36000000000000    19.36000000000000
 28     1.76000000000000    17.60000000000000    19.36000000000000
 28     1.76000000000000    19.36000000000000    17.60000000000000
 28     0.00000000000000    17.60000000000000    21.12000000000000
 28     0.00000000000000    19.36000000000000    22.88000000000000
 28     1.76000000000000    17.60000000000000    22.88000000000000
 28     1.76000000000000    19.36000000000000    21.12000000000000
 28     0.00000000000000    17.60000000000000    24.64000000000000
 28     0.00000000000000    19.36000000000000    26.40000000000000
 28     1.76000000000000    17.60000000000000    26.40000000000000
 28     1.76000000000000    19.36000000000000    24.64000000000000
 28     0.00000000000000    17.60000000000000    28.16000000000000
 28     0.00000000000000    19.36000000000000    29.92000000000000
 28     1.76000000000000    17.60000000000000    29.92000000000000
 28     1.76000000000000    19.36000000000000    28.16000000000000
 28     0.00000000000000    17.60000000000000    31.68000000000000
 28     0.00000000000000    19.36000000000000    33.44000000000000
 28     1.76000000000000    17.60000000000000    33.44000000000000
 28     1.76000000000000    19.36000000000000    31.68000000000000
 28     0.00000000000000    21.12000000000000     0.00000000000000
 28     0.00000000000000    22.88000000000000     1.76000000000000
 28     1.76000000000000    21.12000000000000     1.76000000000000
 28     1.76000000000000    22.88000000000000     0.00000000000000
 28     0.00000000000000    21.12000000000000     3.52000000000000
 28     0.00000000000000    22.88000000000000     5.28000000000000
 28     1.76000000000000    21.12000000000000     5.28000000000000
 28     1.76000000000000    22.88000000000000     3.52000000000000
 28     0.00000000000000    21.12000000000000     7.04000000000000
 28     0.00000000000000    22.88000000000000     8.80000000000000
 28     1.76000000000000    21.12000000000000     8.80000000000000
 28     1.76000000000000    22.88000000000000     7.04000000000000
 28     0.00000000000000    21.12000000000000    10.56000000000000
 28     0.00000000000000    22.88000000000000    12.32000000000000
 28     1.76000000000000    21.12000000000000    12.32000000000000
 28     1.76000000000000    22.88000000000000    10.56000000000000
 28     0.00000000000000    21.12000000000000    14.08000000000000
 28     0.00000000000000    22.88000000000000    15.84000000000000
 28     1.76000000000000    21.12000000000000    15.84000000000000
 28     1.76000000000000    22.88000000000000    14.08000000000000
 28     0.00000000000000    21.12000000000000    17.60000000000000
 28     0.00000000000000    22.88000000000000    19.36000000000000
 28     1.76000000000000    21.12000000000000    19.36000000000000
 28     1.76000000000000    22.88000000000000    17.60000000000000
 28     0.00000000000000    21.12000000000000    21.12000000000000
 28     0.00000000000000    22.88000000000000    22.88000000000000
 28     1.76000000000000    21.12000000000000    22.88000000000000
 28     1.76000000000000    22.88000000000000    21.12000000000000
 28     0.00000000000000    21.12000000000000    24.64000000000000
 28     0.00000000000000    22.88000000000000    26.40000000000000
 28     1.76000000000000    21.12000000000000    26.40000000000000
 28     1.76000000000000    22.88000000000000    24.64000000000000
 28     0.00000000000000    21.12000000000000    28.16000000000000
 28     0.00000000000000    22.88000000000000    29.92000000000000
 28     1.76000000000000    21.12000000000000    29.92000000000000
 28     1.76000000000000    22.88000000000000    28.16000000000000
 28     0.00000000000000    21.12000000000000    31.68000000000000
 28     0.00000000000000    22.88000000000000    33.44000000000000
 28     1.76000000000000    21.12000000000000    33.44000000000000
 28     1.76000000000000    22.88000000000000    31.68000000000000
 28     0.00000000000000    24.64000000000000     0.00000000000000
 28     0.00000000000000    26.40000000000000     1.76000000000000
 28     1.76000000000000    24.64000000000000     1.76000000000000
 28     1.76000000000000    26.40000000000000     0.00000000000000
 28     0.00000000000000    24.64000000000000     3.52000000000000
 28     0.00000000000000    26.40000000000000     5.28000000000000
 28     1.76000000000000    24.64000000000000     5.28000000000000
 28     1.76000000000000    26.40000000000000     3.52000000000000
 28     0.00000000000000    24.64000000000000     7.04000000000000
 28     0.00000000000000    26.40000000000000     8.80000000000000
 28     1.76000000000000    24.64000000000000     8.80000000000000
 28     1.76000000000000    26.40000000000000     7.04000000000000
 28     0.00000000000000    24.64000000000000    10.56000000000000
 28     0.00000000000000    26.40000000000000    12.32000000000000
 28     1.76000000000000    24.64000000000000    12.32000000000000
 28     1.76000000000000    26.40000000000000    10.56000000000000
 28     0.00000000000000    24.64000000000000    14.08000000000000
 28     0.00000000000000    26.40000000000000    15.84000000000000
 28     1.76000000000000    24.64000000000000    15.84000000000000
 28     1.76000000000000    26.40000000000000    14.08000000000000
 28     0.00000000000000    24.64000000000000    17.60000000000000
 28     0.00000000000000    26.40000000000000    19.36000000000000
 28     1.76000000000000    24.64000000000000    19.36000000000000
 28     1.76000000000000    26.40000000000000    17.60000000000000
 28     0.00000000000000    24.64000000000000    21.12000000000000
 28     0.00000000000000    26.40000000000000    22.88000000000000
 28     1.76000000000000    24.64000000000000    22.88000000000000
 28     1.76000000000000    26.40000000000000    21.12000000000000
 28     0.00000000000000    24.64000000000000    24.64000000000000
 28     0.00000000000000    26.40000000000000    26.40000000000000
 28     1.76000000000000    24.64000000000000    26.40000000000000
 28     1.76000000000000    26.40000000000000    24.64000000000000
 28     0.00000000000000    24.64000000000000    28.16000000000000
 28     0.00000000000000    26.40000000000000    29.92000000000000
 28     1.76000000000000    24.64000000000000    29.92000000000000
 28     1.76000000000000    26.40000000000000    28.16000000000000
 28     0.00000000000000    24.64000000000000    31.68000000000000
 28     0.00000000000000    26.40000000000000    33.44000000000000
 28     1.76000000000000    24.64000000000000    33.44000000000000
 28     1.76000000000000    26.40000000000000    31.68000000000000
 28     0.00000000000000    28.16000000000000     0.00000000000000
 28     0.00000000000000    29.92000000000000     1.76000000000000
 28     1.76000000000000    28.16000000000000     1.76000000000000
 28     1.76000000000000    29.92000000000000     0.00000000000000
 28     0.00000000000000    28.16000000000000     3.52000000000000
 28     0.00000000000000    29.92000000000000     5.28000000000000
 28     1.76000000000000    28.16000000000000     5.28000000000000
 28     1.76000000000000    29.92000000000000     3.52000000000000
 28     0.00000000000000    28.16000000000000     7.04000000000000
 28     0.00000000000000    29.92000000000000     8.80000000000000
 28     1.76000000000000    28.16000000000000     8.80000000000000
 28     1.76000000000000    29.92000000000000     7.04000000000000
 28     0.00000000000000    28.16000000000000    10.56000000000000
 28     0.00000000000000    29.92000000000000    12.32000000000000
 28     1.76000000000000    28.16000000000000    12.32000000000000
 28     1.76000000000000    29.92000000000000    10.56000000000000
 28     0.00000000000000    28.16000000000000    14.08000000000000
 28     0.00000000000000    29.92000000000000    15.84000000000000
 28     1.76000000000000    28.16000000000000    15.84000000000000
 28     1.76000000000000    29.92000000000000    14.08000000000000
 28     0.00000000000000    28.16000000000000    17.60000000000000
 28     0.00000000000000    29.92000000000000    19.36000000000000
 28     1.76000000000000    28.16000000000000    19.36000000000000
 28     1.76000000000000    29.92000000000000    17.60000000000000
 28     0.00000000000000    28.16000000000000    21.12000000000000
 28     0.00000000000000    29.92000000000000    22.88000000000000
 28     1.76000000000000    28.16000000000000    22.88000000000000
 28     1.76000000000000    29.92000000000000    21.12000000000000
 28     0.00000000000000    28.16000000000000    24.64000000000000
 28     0.00000000000000    29.92000000000000    26.40000000000000
 28     1.76000000000000    28.16000000000000    26.40000000000000
 28     1.76000000000000    29.92000000000000    24.64000000000000
 28     0.00000000000000    28.16000000000000    28.16000000000000
 28     0.00000000000000    29.92000000000000    29.92000000000000
 28     1.76000000000000    28.16000000000000    29.92000000000000
 28     1.76000000000000    29.92000000000000    28.16000000000000
 28     0.00000000000000    28.16000000000000    31.68000000000000
 28     0.00000000000000    29.92000000000000    33.44000000000000
 28     1.76000000000000    28.16000000000000    33.44000000000000
 28     1.76000000000000    29.92000000000000    31.68000000000000
 28     0.00000000000000    31.68000000000000     0.00000000000000
 28     0.00000000000000    33.44000000000000     1.76000000000000
 28     1.76000000000000    31.68000000000000     1.76000000000000
 28     1.76000000000000    33.44000000000000     0.00000000000000
 28     0.00000000000000    31.68000000000000     3.52000000000000
 28     0.00000000000000    33.44000000000000     5.28000000000000
 28     1.76000000000000    31.68000000000000     5.28000000000000
 28     1.76000000000000    33.44000000000000     3.52000000000000
 28     0.00000000000000    31.68000000000000     7.04000000000000
 28     0.00000000000000    33.44000000000000     8.80000000000000
 28     1.76000000000000    31.68000000000000     8.80000000000000
 28     1.76000000000000    33.44000000000000     7.04000000000000
 28     0.00000000000000    31.68000000000000    10.56000000000000
 28     0.00000000000000    33.44000000000000    12.32000000000000
 28     1.76000000000000    31.68000000000000    12.32000000000000
 28     1.76000000000000    33.44000000000000    10.56000000000000
 28     0.00000000000000    31.68000000000000    14.08000000000000
 28     0.00000000000000    33.44000000000000    15.84000000000000
 28     1.76000000000000    31.68000000000000    15.84000000000000
 28     1.76000000000000    33.44000000000000    14.08000000000000
 28     0.00000000000000    31.68000000000000    17.60000000000000
 28     0.00000000000000    33.44000000000000    19.36000000000000
 28     1.76000000000000    31.68000000000000    19.36000000000000
 28     1.76000000000000    33.44000000000000    17.60000000000000
 28     0.00000000000000    31.68000000000000    21.12000000000000
 28     0.00000000000000    33.44000000000000    22.88000000000000
 28     1.76000000000000    31.68000000000000    22.88000000000000
 28     1.76000000000000    33.44000000000000    21.12000000000000
 28     0.00000000000000    31.68000000000000    24.64000000000000
 28     0.00000000000000    33.44000000000000    26.40000000000000
 28     1.76000000000000    31.68000000000000    26.40000000000000
 28     1.76000000000000    33.44000000000000    24.64000000000000
 28     0.00000000000000    31.68000000000000    28.16000000000000
 28     0.00000000000000    33.44000000000000    29.92000000000000
 28     1.76000000000000    31.68000000000000    29.92000000000000
 28     1.76000000000000    33.44000000000000    28.16000000000000
 28     0.00000000000000    31.68000000000000    31.68000000000000
 28     0.00000000000000    33.44000000000000    33.44000000000000
 28     1.76000000000000    31.68000000000000    33.44000000000000
 28     1.76000000000000    33.44000000000000    31.68000000000000
 28     3.52000000000000     0.00000000000000     0.00000000000000
 28     3.52000000000000     1.76000000000000     1.76000000000000
 28     5.28000000000000     0.00000000000000     1.76000000000000
 28     5.28000000000000     1.76000000000000     0.00000000000000
 28     3.52000000000000     0.00000000000000     3.52000000000000
 28     3.52000000000000     1.76000000000000     5.28000000000000
 28     5.28000000000000     0.00000000000000     5.28000000000000
 28     5.28000000000000     1.76000000000000     3.52000000000000
 28     3.52000000000000     0.00000000000000     7.04000000000000
 28     3.52000000000000     1.76000000000000     8.80000000000000
 28     5.28000000000000     0.00000000000000     8.80000000000000
 28     5.28000000000000     1.76000000000000     7.04000000000000
 28     3.52000000000000     0.00000000000000    10.56000000000000
 28     3.52000000000000     1.76000000000000    12.32000000000000
 28     5.28000000000000     0.00000000000000    12.32000000000000
 28     5.28000000000000     1.76000000000000    10.56000000000000
 28     3.52000000000000     0.00000000000000    14.08000000000000
 28     3.52000000000000     1.76000000000000    15.84000000000000
 28     5.28000000000000     0.00000000000000    15.84000000000000
 28     5.28000000000000     1.76000000000000    14.08000000000000
 28     3.52000000000000     0.00000000000000    17.60000000000000
 28     3.52000000000000     1.76000000000000    19.36000000000000
 28     5.28000000000000     0.00000000000000    19.36000000000000
 28     5.28000000000000     1.76000000000000    17.60000000000000
 28     3.52000000000000     0.00000000000000    21.12000000000000
 28     3.52000000000000     1.76000000000000    22.88000000000000
 28     5.28000000000000     0.00000000000000    22.88000000000000
 28     5.28000000000000     1.76000000000000    21.12000000000000
 28     3.52000000000000     0.00000000000000    24.64000000000000
 28     3.52000000000000     1.76000000000000    26.40000000000000
 28     5.28000000000000     0.00000000000000    26.40000000000000
 28     5.28000000000000     1.76000000000000    24.64000000000000
 28     3.52000000000000     0.00000000000000    28.16000000000000
 28     3.52000000000000     1.76000000000000    29.92000000000000
 28     5.28000000000000     0.00000000000000    29.92000000000000
 28     5.28000000000000     1.76000000000000    28.16000000000000
 28     3.52000000000000     0.00000000000000    31.68000000000000
 28     3.52000000000000     1.76000000000000    33.44000000000000
 28     5.28000000000000     0.00000000000000    33.44000000000000
 28     5.28000000000000     1.76000000000000    31.68000000000000
 28     3.52000000000000     3.52000000000000     0.00000000000000
 28     3.52000000000000     5.28000000000000     1.76000000000000
 28     5.28000000000000     3.52000000000000     1.76000000000000
 28     5.28000000000000     5.28000000000000     0.00000000000000