4000
Lattice="35.2 0.0 0.0 0.0 35.2 0.0 0.0 0.0 35.2" Properties=species:S:1:pos:R:3 properties=species:I:1:pos:R:3:forces:R:3:id:I:1 energy=-17800.495757583 pbc="T T T"
Ni      -0.00048391       0.00109339       0.00129519
Ni      -0.00042176       1.76077638       1.76106560
Ni       1.75915283       0.00106203       1.76114698
Ni       1.75913098       1.76091782       0.00129795
Ni      -0.00042174       0.00091255       3.52079470
Ni      -0.00039236       1.76066520       5.28047702
Ni       1.75924768       0.00092225       5.28034065
Ni       1.75927374       1.76075456       3.52078319
Ni      -0.00043974       0.00082887       7.04007923
Ni      -0.00041016       1.76064236       8.79986967
Ni       1.75915782       0.00097401       8.79963144
Ni       1.75930162       1.76071495       7.04005844
Ni      -0.00048999       0.00083949      10.55960792
Ni      -0.00043579       1.76067554      12.31954831
Ni       1.75904033       0.00108272      12.31937966
Ni       1.75924259       1.76077730      10.55956935
Ni      -0.00051555       0.00086724      14.07950813
Ni      -0.00045486       1.76072713      15.83952954
Ni       1.75897100       0.00115796      15.83949284
Ni       1.75918176       1.76085664      14.07945819
Ni      -0.00053247       0.00089951      17.59963559
Ni      -0.00047587       1.76078969      19.35970936
Ni       1.75891060       0.00123216      19.35974563
Ni       1.75912962       1.76093346      17.59959541
Ni      -0.00055530       0.00096737      21.11988659
Ni      -0.00049492       1.76085748      22.88002888
Ni       1.75885852       0.00132445      22.88010409
Ni       1.75907941       1.76100324      21.11987398
Ni      -0.00056585       0.00107937      24.64027031
Ni      -0.00050985       1.76092789      26.40047172
Ni       1.75881447       0.00142283      26.40063574
Ni       1.75902673       1.76106430      24.64028861
Ni      -0.00057808       0.00120456      28.16078595
Ni      -0.00051516       1.76096851      29.92096150
Ni       1.75880338       0.00146054      29.92123083
Ni       1.75898072       1.76110615      28.16082039
Ni      -0.00055927       0.00122888      31.68124658
Ni      -0.00048232       1.76091374      33.44124873
Ni       1.75893142       0.00131786      33.44150540
Ni       1.75899949       1.76107149      31.68127218
Ni      -0.00043253       3.52049362       0.00117127
Ni      -0.00040393       5.28007105       1.76103790
Ni       1.75925126       3.52047750       1.76106299
Ni       1.75920574       5.28006599       0.00119865
Ni      -0.00038545       3.52041575       3.52080930
Ni      -0.00036364       5.28006290       5.28053611
Ni       1.75934473       3.52041537       5.28047243
Ni       1.75931719       5.28006289       3.52080917
Ni      -0.00036664       3.52037416       7.04020564
Ni      -0.00034973       5.28005180       8.79996123
Ni       1.75936277       3.52041843       8.79986508
Ni       1.75938562       5.28005625       7.04018588
Ni      -0.00037162       3.52037678      10.55971658
Ni      -0.00034932       5.28004012      12.31959929
Ni       1.75934325       3.52045377      12.31954238
Ni       1.75939976       5.28004502      10.55970276
Ni      -0.00038001       3.52040417      14.07951842
Ni      -0.00035344       5.28003557      15.83952151
Ni       1.75931800       3.52049773      15.83952252
Ni       1.75939330       5.28003470      14.07952055
Ni      -0.00039220       3.52044525      17.59958196
Ni      -0.00036705       5.28004357      19.35966971
Ni       1.75928158       3.52054493      19.35970452
Ni       1.75937321       5.28003362      17.59958998
Ni      -0.00041062       3.52048948      21.11982704
Ni      -0.00039232       5.28005965      22.87997596
Ni       1.75922892       3.52058387      22.88002879
Ni       1.75932883       5.28004297      21.11983217
Ni      -0.00043603       3.52053034      24.64020233
Ni      -0.00042707       5.28007436      26.40039866
Ni       1.75915708       3.52061264      26.40047626
Ni       1.75925755       5.28005626      24.64020980
Ni      -0.00046243       3.52055965      28.16066619
Ni      -0.00045599       5.28007984      29.92086206
Ni       1.75910268       3.52061977      29.92096765
Ni       1.75917195       5.28006551      28.16068799
Ni      -0.00046771       3.52055383      31.68107832
Ni      -0.00044828       5.28007726      33.44115516
Ni       1.75913647       3.52057081      33.44125144
Ni       1.75913861       5.28006757      31.68111347
Ni      -0.00044052       7.03965434       0.00117795
Ni      -0.00043146       8.79936269       1.76109084
Ni       1.75924155       7.03965240       1.76107865
Ni       1.75910679       8.79921569       0.00131395
Ni      -0.00038739       7.03971817       3.52083003
Ni      -0.00038967       8.79945788       5.28052386
Ni       1.75934493       7.03970547       5.28049698
Ni       1.75926458       8.79937260       3.52082042
Ni      -0.00036186       7.03974079       7.04023406
Ni      -0.00039672       8.79946200       8.79992266
Ni       1.75937221       7.03968504       8.79989265
Ni       1.75931108       8.79939981       7.04010850
Ni      -0.00036241       7.03971582      10.55974261
Ni      -0.00041625       8.79941463      12.31958500
Ni       1.75935782       7.03962849      12.31956178
Ni       1.75926630       8.79932192      10.55961614
Ni      -0.00036915       7.03967286      14.07952880
Ni      -0.00043304       8.79936335      15.83952795
Ni       1.75933301       7.03957451      15.83952202
Ni       1.75921242       8.79923312      14.07947887
Ni      -0.00038170       7.03963684      17.59956783
Ni      -0.00045485       8.79931850      19.35966349
Ni       1.75929194       7.03953727      19.35968218
Ni       1.75916011       8.79916164      17.59957565
Ni      -0.00040315       7.03961846      21.11979181
Ni      -0.00048000       8.79927589      22.87995579
Ni       1.75922923       7.03952061      22.87999635
Ni       1.75910139       8.79910880      21.11982240
Ni      -0.00043478       7.03960787      24.64016102
Ni      -0.00051062       8.79922167      26.40040159
Ni       1.75914949       7.03951329      26.40044957
Ni       1.75903173       8.79906370      24.64023205
Ni      -0.00046843       7.03959640      28.16063528
Ni      -0.00052909       8.79918580      29.92091894
Ni       1.75908833       7.03951525      29.92095550
Ni       1.75896581       8.79902914      28.16078188
Ni      -0.00047757       7.03960336      31.68106639
Ni      -0.00049947       8.79923614      33.44124221
Ni       1.75912093       7.03956359      33.44125469
Ni       1.75897273       8.79906460      31.68126149
Ni      -0.00050246      10.55904653       0.00130456
Ni      -0.00048636      12.31903346       1.76117114
Ni       1.75913002      10.55906897       1.76117945
Ni       1.75891269      12.31881711       0.00153512
Ni      -0.00042678      10.55921507       3.52084242
Ni      -0.00045012      12.31917529       5.28044898
Ni       1.75924787      10.55919960       5.28039889
Ni       1.75916510      12.31907254       3.52080109
Ni      -0.00042885      10.55928262       7.04014753
Ni      -0.00050395      12.31919697       8.79979902
Ni       1.75918079      10.55913706       8.79969858
Ni       1.75914005      12.31908333       7.03988511
Ni      -0.00046750      10.55926105      10.55967065
Ni      -0.00052702      12.31920375      12.31956010
Ni       1.75907942      10.55902407      12.31942895
Ni       1.75898079      12.31894954      10.55938254
Ni      -0.00048614      10.55923475      14.07953486
Ni      -0.00050450      12.31925814      15.83960860
Ni       1.75901963      10.55895619      15.83949845
Ni       1.75892138      12.31888717      14.07940738
Ni      -0.00049904      10.55921601      17.59960703
Ni      -0.00049853      12.31927909      19.35974990
Ni       1.75896242      10.55889733      19.35970239
Ni       1.75891685      12.31889862      17.59963693
Ni      -0.00052316      10.55916525      21.11980899
Ni      -0.00052471      12.31917127      22.87999941
Ni       1.75890169      10.55881896      22.88003337
Ni       1.75886800      12.31884056      21.11989775
Ni      -0.00054867      10.55906427      24.64017318
Ni      -0.00058279      12.31895852      26.40045021
Ni       1.75882419      10.55871893      26.40056940
Ni       1.75878940      12.31868097      24.64032907
Ni      -0.00058398      10.55894241      28.16070662
Ni      -0.00063986      12.31879568      29.92104512
Ni       1.75878179      10.55867710      29.92119254
Ni       1.75865717      12.31850761      28.16100430
Ni      -0.00057938      10.55891696      31.68120890
Ni      -0.00059983      12.31883997      33.44141159
Ni       1.75889813      10.55881728      33.44150353
Ni       1.75865738      12.31853951      31.68157928
Ni      -0.00058219      14.07894626       0.00142783
Ni      -0.00053918      15.83916170       1.76121140
Ni       1.75900726      14.07899597       1.76127270
Ni       1.75874613      15.83897194       0.00169352
Ni      -0.00047606      14.07913481       3.52082809
Ni      -0.00050662      15.83928567       5.28035872
Ni       1.75913564      14.07913176       5.28024393
Ni       1.75909968      15.83922278       3.52075494
Ni      -0.00051536      14.07921106       7.04001714
Ni      -0.00058149      15.83932483       8.79970627
Ni       1.75894587      14.07901838       8.79942640
Ni       1.75898889      15.83919974       7.03966108
Ni      -0.00055958      14.07923545      10.55960291
Ni      -0.00049481      15.83942407      12.31962548
Ni       1.75885561      14.07891766      12.31928342
Ni       1.75880602      15.83905958      10.55919259
Ni      -0.00048909      14.07934230      14.07962322
Ni      -0.00030752      15.83964190      15.83979875
Ni       1.75896762      14.07900613      15.83957337
Ni       1.75901427      15.83912246      14.07945407
Ni      -0.00040623      14.07948726      17.59976731
Ni      -0.00021327      15.83978170      19.35995202
Ni       1.75903768      14.07910994      19.35984478
Ni       1.75931284      15.83940095      17.59982858
Ni      -0.00038814      14.07947731      21.11992803
Ni      -0.00024501      15.83963880      22.88012387
Ni       1.75896938      14.07896805      22.88014935
Ni       1.75939323      15.83947127      21.12007475
Ni      -0.00046556      14.07923430      24.64023098
Ni      -0.00040680      15.83927906      26.40049348
Ni       1.75876186      14.07864318      26.40071076
Ni       1.75916609      15.83911315      24.64044839
Ni      -0.00059922      14.07892867      28.16076846
Ni      -0.00062773      15.83899751      29.92107373
Ni       1.75853343      14.07847339      29.92145952
Ni       1.75872929      15.83869364      28.16113580
Ni      -0.00067483      14.07881274      31.68133768
Ni      -0.00067991      15.83899274      33.44149579
Ni       1.75863814      14.07866070      33.44178305
Ni       1.75845808      15.83866660      31.68179816
Ni      -0.00064238      17.59927042       0.00146194
Ni      -0.00057381      19.35956062       1.76120965
Ni       1.75894058      17.59932363       1.76130830
Ni       1.75865144      19.35945912       0.00175037
Ni      -0.00051167      17.59940248       3.52079370
Ni      -0.00054274      19.35962953       5.28029235
Ni       1.75907472      17.59941544       5.28011233
Ni       1.75909201      19.35960990       3.52070955
Ni      -0.00057587      17.59946271       7.03992621
Ni      -0.00059630      19.35966864       8.79970044
Ni       1.75880544      17.59930494       8.79924461
Ni       1.75890299      19.35958345       7.03952099
Ni      -0.00054072      17.59952632      10.55963539
Ni      -0.00032463      19.35977795      12.31976845
Ni       1.75896340      17.59927283      12.31929731
Ni       1.75883248      19.35950385      10.55917324
Ni      -0.00026938      17.59971491      14.07979903
Ni      -0.00004474      19.35995503      15.83997524
Ni       1.75950752      17.59955518      15.83976378
Ni       1.75949237      19.35964756      14.07963276
Ni      -0.00008451      17.59993481      17.59998648
Ni       0.00007404      19.36009147      19.36014520
Ni       1.75979168      17.59983281      19.36007028
Ni       1.75999413      19.35992518      17.60001092
Ni      -0.00004896      17.59996154      21.12012964
Ni       0.00004003      19.35998697      22.88030950
Ni       1.75971854      17.59968818      22.88030857
Ni       1.76010929      19.36002785      21.12026760
Ni      -0.00015535      17.59968561      24.64033835
Ni      -0.00015867      19.35970370      26.40054447
Ni       1.75927839      17.59920595      26.40077887
Ni       1.75984141      19.35972186      24.64057601
Ni      -0.00040518      17.59934501      28.16075105
Ni      -0.00047773      19.35950627      29.92098185
Ni       1.75861915      17.59889833      29.92151726
Ni       1.75918954      19.35936010      28.16109155
Ni      -0.00067342      17.59919218      31.68131224
Ni      -0.00070351      19.35947508      33.44145383
Ni       1.75847983      17.59904279      33.44191062
Ni       1.75846820      19.35926552      31.68179542
Ni      -0.00067398      21.11977336       0.00144511
Ni      -0.00058911      22.88003990       1.76120773
Ni       1.75892349      21.11979738       1.76131610
Ni       1.75860911      22.88004307       0.00177721
Ni      -0.00052906      21.11981791       3.52076537
Ni      -0.00055919      22.88004163       5.28025833
Ni       1.75905921      21.11982874       5.28003493
Ni       1.75910930      22.88004196       3.52068866
Ni      -0.00060616      21.11984388       7.03988902
Ni      -0.00057796      22.88004782       8.79971792
Ni       1.75875670      21.11978284       8.79918158
Ni       1.75885983      22.88004357       7.03945669
Ni      -0.00045341      21.11988700      10.55972312
Ni      -0.00025962      22.88005358      12.31982819
Ni       1.75925405      21.11980622      12.31944519
Ni       1.75892296      22.88004578      10.55922915
Ni      -0.00010564      21.11996743      14.07992189
Ni       0.00004801      22.88005674      15.84003359
Ni       1.75995277      21.11992895      15.83988255
Ni       1.75968027      22.88004528      14.07970153
Ni       0.00010940      21.12007291      17.60011027
Ni       0.00016890      22.88006072      19.36021901
Ni       1.76029230      21.12007898      19.36018067
Ni       1.76023816      22.88004584      17.60004318
Ni       0.00015041      21.12009645      21.12029216
Ni       0.00013808      22.88006291      22.88041121
Ni       1.76021659      21.12002252      22.88048115
Ni       1.76036597      22.88005445      21.12034626
Ni       0.00003679      21.11996973      24.64046704
Ni      -0.00006628      22.88005849      26.40059029
Ni       1.75972020      21.11979088      26.40083062
Ni       1.76008724      22.88005703      24.64067212
Ni      -0.00025374      21.11981896      28.16072716
Ni      -0.00041521      22.88005039      29.92094222
Ni       1.75890222      21.11966110      29.92139491
Ni       1.75938105      22.88005005      28.16107530
Ni      -0.00059440      21.11975914      31.68120864
Ni      -0.00068326      22.88004367      33.44141183
Ni       1.75842316      21.11968712      33.44192036
Ni       1.75856057      22.88004568      31.68172616
Ni      -0.00066991      24.64031099       0.00145334
Ni      -0.00056803      26.40052708       1.76120814
Ni       1.75892826      24.64028963       1.76131731
Ni       1.75866282      26.40063662       0.00176392
Ni      -0.00052764      24.64026388       3.52075832
Ni      -0.00054335      26.40045890       5.28026649
Ni       1.75905980      24.64025802       5.28002400
Ni       1.75909824      26.40048234       3.52069664
Ni      -0.00060832      24.64024591       7.03987343
Ni      -0.00060430      26.40042910       8.79966799
Ni       1.75875098      24.64030902       8.79916586
Ni       1.75889784      26.40051046       7.03949192
Ni      -0.00045891      24.64021563      10.55970860
Ni      -0.00033873      26.40033255      12.31974435
Ni       1.75924334      24.64028845      12.31943026
Ni       1.75881499      26.40059687      10.55914161
Ni      -0.00011414      24.64014468      14.07991293
Ni      -0.00006285      26.40016463      15.83996609
Ni       1.75993567      24.64016517      15.83986675
Ni       1.75946376      26.40045758      14.07960390
Ni       0.00010032      24.64004561      17.60010883
Ni       0.00005620      26.40003193      19.36015390
Ni       1.76027865      24.64002251      19.36017190
Ni       1.75996138      26.40018189      17.59999010
Ni       0.00014174      24.64002794      21.12029979
Ni       0.00002668      26.40013449      22.88033881
Ni       1.76020720      24.64009022      22.88048654
Ni       1.76008397      26.40008135      21.12026757
Ni       0.00003183      24.64015176      24.64048607
Ni      -0.00016269      26.40040872      26.40059024
Ni       1.75971654      24.64031595      26.40085096
Ni       1.75982725      26.40038635      24.64060354
Ni      -0.00025355      24.64028927      28.16075251
Ni      -0.00047405      26.40059563      29.92102939
Ni       1.75890230      24.64043519      29.92141998
Ni       1.75918487      26.40074292      28.16113723
Ni      -0.00059143      24.64033533      31.68123056
Ni      -0.00069522      26.40061823      33.44148247
Ni       1.75842940      24.64040350      33.44193474
Ni       1.75847594      26.40083302      31.68183286
Ni      -0.00063084      28.16082855       0.00147699
Ni      -0.00052770      29.92094548       1.76119720
Ni       1.75895561      28.16077946       1.76130306
Ni       1.75876980      29.92114419       0.00170187
Ni      -0.00050739      28.16069218       3.52076812
Ni      -0.00050843      29.92081539       5.28030579
Ni       1.75907572      28.16068454       5.28007648
Ni       1.75911112      29.92088776       3.52072180
Ni      -0.00058258      28.16063314       7.03987863
Ni      -0.00059708      29.92077734       8.79964291
Ni       1.75878843      28.16079876       8.79919673
Ni       1.75897837      29.92090793       7.03960251
Ni      -0.00055748      28.16057987      10.55959107
Ni      -0.00052174      29.92069098      12.31957971
Ni       1.75892852      28.16084213      12.31925405
Ni       1.75877318      29.92105570      10.55913258
Ni      -0.00029433      28.16040523      14.07977457
Ni      -0.00034318      29.92048725      15.83978850
Ni       1.75945724      28.16056811      15.83973191
Ni       1.75895974      29.92100967      14.07941174
Ni      -0.00011158      28.16019195      17.59999078
Ni      -0.00024644      29.92034806      19.35998550
Ni       1.75974437      28.16028688      19.36006426
Ni       1.75924181      29.92074017      17.59981408
Ni      -0.00007189      28.16016178      21.12016414
Ni      -0.00026802      29.92048173      22.88019262
Ni       1.75968537      28.16042363      22.88033523
Ni       1.75933319      29.92065901      21.12010054
Ni      -0.00016743      28.16042898      24.64039796
Ni      -0.00041377      29.92083411      26.40057881
Ni       1.75926164      28.16090277      26.40083369
Ni       1.75912675      29.92100781      24.64050619
Ni      -0.00040441      28.16076229      28.16082019
Ni      -0.00062048      29.92111486      29.92114971
Ni       1.75861985      28.16121053      29.92157607
Ni       1.75871381      29.92142743      28.16120695
Ni      -0.00066341      28.16091093      31.68136583
Ni      -0.00066397      29.92111908      33.44153260
Ni       1.75849540      28.16106499      33.44194261
Ni       1.75847144      29.92145371      31.68184743
Ni      -0.00056386      31.68117529       0.00143187
Ni      -0.00047246      33.44109404       1.76114223
Ni       1.75903047      31.68112644       1.76124977
Ni       1.75894437      33.44131393       0.00152505
Ni      -0.00047011      31.68097838       3.52078250
Ni      -0.00045317      33.44093920       5.28038308
Ni       1.75913622      31.68098364       5.28018535
Ni       1.75917843      33.44105206       3.52075279
Ni      -0.00052612      31.68089342       7.03994496
Ni      -0.00052290      33.44090777       8.79972303
Ni       1.75892082      31.68109509       8.79935456
Ni       1.75912683      33.44103258       7.03981360
Ni      -0.00058418      31.68087155      10.55953642
Ni      -0.00055706      33.44090429      12.31950663
Ni       1.75880785      31.68120735      12.31922576
Ni       1.75894435      33.44116505      10.55931342
Ni      -0.00052447      31.68077943      14.07959127
Ni      -0.00054297      33.44086382      15.83960515
Ni       1.75889850      31.68113791      15.83955109
Ni       1.75886666      33.44123890      14.07937012
Ni      -0.00044875      31.68064642      17.59978675
Ni      -0.00054089      33.44085442      19.35980468
Ni       1.75895514      31.68104258      19.35986518
Ni       1.75884699      33.44124442      17.59964924
Ni      -0.00042346      31.68065353      21.11999761
Ni      -0.00055552      33.44096437      22.88009518
Ni       1.75890351      31.68117536      22.88020912
Ni       1.75879317      33.44131363      21.11995332
Ni      -0.00048479      31.68088980      24.64032707
Ni      -0.00059363      33.44117767      26.40055218
Ni       1.75872517      31.68149421      26.40078747
Ni       1.75873904      33.44146986      24.64040690
Ni      -0.00059979      31.68119455      28.16086132
Ni      -0.00062743      33.44134062      29.92111809
Ni       1.75853796      31.68165838      29.92151983
Ni       1.75865140      33.44163320      28.16107028
Ni      -0.00065829      31.68131146      31.68139514
Ni      -0.00057794      33.44129466      33.44143464
Ni       1.75866629      31.68146659      33.44180501
Ni       1.75868441      33.44159505      31.68161132
Ni       3.51870302       0.00134216       0.00158008
Ni       3.51896024       1.76090364       1.76115038
Ni       5.27877189       0.00126134       1.76130764
Ni       5.27869084       1.76115400       0.00154387
Ni       3.51900127       0.00103818       3.52074521
Ni       3.51910184       1.76078579       5.28034067
Ni       5.27895491       0.00109107       5.28011490
Ni       5.27896968       1.76088321       3.52075799
Ni       3.51897789       0.00106257       7.03975929
Ni       3.51905653       1.76086638       8.79963125
Ni       5.27871410       0.00137784       8.79916350
Ni       5.27900981       1.76090835       7.03981769
Ni       3.51875645       0.00128685      10.55921563
Ni       3.51896020       1.76099158      12.31937529
Ni       5.27840996       0.00168746      12.31895247
Ni       5.27889194       1.76108346      10.55931479
Ni       3.51859934       0.00145437      14.07926211
Ni       3.51890426       1.76108020      15.83948278
Ni       5.27830257       0.00179200      15.83932919
Ni       5.27883020       1.76117079      14.07935865
Ni       3.51851870       0.00155164      17.59957310
Ni       3.51884920       1.76116035      19.35973426
Ni       5.27825771       0.00186144      19.35976785
Ni       5.27883672       1.76120646      17.59962609
Ni       3.51844374       0.00164309      21.11992925
Ni       3.51876722       1.76122624      22.88009730
Ni       5.27813607       0.00197056      22.88021575
Ni       5.27877410       1.76127716      21.11993104
Ni       3.51834126       0.00175260      24.64044961
Ni       3.51865483       1.76128618      26.40063781
Ni       5.27793848       0.00212597      26.40098903
Ni       5.27860522       1.76135628      24.64039805
Ni       3.51826426       0.00182149      28.16118004
Ni       3.51859279       1.76129804      29.92124147
Ni       5.27790806       0.00215810      29.92184270
Ni       5.27840940       1.76146937      28.16108416
Ni       3.51836237       0.00170259      31.68172613
Ni       3.51871307       1.76115258      33.44151594
Ni       5.27826382       0.00179989      33.44203887
Ni       5.27841683       1.76143929      31.68163847
Ni       3.51892466       3.52057816       0.00129900
Ni       3.51903095       5.28005791       1.76108841
Ni       5.27891027       3.52056543       1.76114360
Ni       5.27883333       5.28004799       0.00132858
Ni       3.51909737       3.52047230       3.52078924
Ni       3.51917225       5.28005801       5.28046271
Ni       5.27907511       3.52049422       5.28037675
Ni       5.27901810       5.28005580       3.52080053
Ni       3.51918117       3.52045806       7.04007277
Ni       3.51923576       5.28005106       8.79985299
Ni       5.27912129       3.52054051       8.79971673
Ni       5.27914584       5.28005623       7.04007527
Ni       3.51918122       3.52050510      10.55959937
Ni       3.51925893       5.28003847      12.31955847
Ni       5.27914082       3.52058465      12.31949160
Ni       5.27921339       5.28004586      10.55963817
Ni       3.51917374       3.52055012      14.07949334
Ni       3.51927496       5.28002940      15.83955545
Ni       5.27919553       3.52059431      15.83957851
Ni       5.27928754       5.28003163      14.07956494
Ni       3.51916399       3.52059256      17.59961892
Ni       3.51925616       5.28003097      19.35972628
Ni       5.27921157       3.52061695      19.35977809
Ni       5.27934931       5.28002645      17.59968155
Ni       3.51910991       3.52063802      21.11987679
Ni       3.51916705       5.28004098      22.88003375
Ni       5.27909520       3.52065816      22.88008418
Ni       5.27930835       5.28003389      21.11990363
Ni       3.51899565       3.52066921      24.64027247
Ni       3.51901131       5.28004770      26.40048223
Ni       5.27886796       3.52071766      26.40056391
Ni       5.27911618       5.28003933      24.64026622
Ni       3.51885310       3.52069813      28.16079906
Ni       3.51887856       5.28005203      29.92099728
Ni       5.27868211       3.52076915      29.92114395
Ni       5.27886533       5.28003733      28.16078690
Ni       3.51880609       3.52067982      31.68126072
Ni       3.51888821       5.28005503      33.44129678
Ni       5.27871099       3.52071306      33.44145419
Ni       5.27874224       5.28004001      31.68127294
Ni       3.51890499       7.03953684       0.00131301
Ni       3.51893344       8.79921849       1.76117985
Ni       5.27889037       7.03954200       1.76116191
Ni       5.27864555       8.79895302       0.00157421
Ni       3.51908838       7.03964654       3.52080954
Ni       3.51909756       8.79933532       5.28038313
Ni       5.27906913       7.03962255       5.28039829
Ni       5.27894645       8.79923638       3.52079189
Ni       3.51918493       7.03965483       7.04009835
Ni       3.51907402       8.79924483       8.79967999
Ni       5.27912825       7.03956730       8.79974105
Ni       5.27901277       8.79921270       7.03986122
Ni       3.51919433       7.03958865      10.55962341
Ni       3.51899096       8.79910501      12.31941106
Ni       5.27915423       7.03949811      12.31950839
Ni       5.27891518       8.79902548      10.55935737
Ni       3.51918950       7.03952224      14.07950339
Ni       3.51893578       8.79900706      15.83948546
Ni       5.27920483       7.03946580      15.83957809
Ni       5.27885860       8.79891787      14.07937763
Ni       3.51917384       7.03947208      17.59960869
Ni       3.51886682       8.79892681      19.35970442
Ni       5.27920760       7.03944001      19.35976550
Ni       5.27884945       8.79886270      17.59961383
Ni       3.51910616       7.03943577      21.11985459
Ni       3.51875835       8.79886346      22.88005988
Ni       5.27907899       7.03940981      22.88007490
Ni       5.27875386       8.79877706      21.11991002
Ni       3.51897927       7.03941986      24.64025473
Ni       3.51862898       8.79881584      26.40061699
Ni       5.27883595       7.03935202      26.40056985
Ni       5.27855614       8.79869626      24.64039751
Ni       3.51883079       7.03940302      28.16079437
Ni       3.51855440       8.79881257      29.92124155
Ni       5.27864712       7.03930591      29.92116220
Ni       5.27835057       8.79859864      28.16110972
Ni       3.51878189       7.03942896      31.68126728
Ni       3.51867307       8.79896464      33.44153219
Ni       5.27868073       7.03937686      33.44147365
Ni       5.27835944       8.79864898      31.68167162
Ni       3.51865983      10.55878385       0.00160389
Ni       3.51876896      12.31887383       1.76132918
Ni       5.27872877      10.55886143       1.76134207
Ni       5.27830882      12.31844297       0.00202826
Ni       3.51898102      10.55908824       3.52078980
Ni       3.51895841      12.31903042       5.28016744
Ni       5.27894369      10.55903635       5.28016366
Ni       5.27886892      12.31896937       3.52072722
Ni       3.51898826      10.55905930       7.03982094
Ni       3.51869703      12.31877415       8.79922888
Ni       5.27873668      10.55874909       8.79922449
Ni       5.27873526      12.31878682       7.03936657
Ni       3.51879279      10.55882981      10.55927662
Ni       3.51841153      12.31847257      12.31901029
Ni       5.27845522      10.55843532      12.31900186
Ni       5.27818547      12.31821039      10.55859082
Ni       3.51865068      10.55866190      14.07929466
Ni       3.51833307      12.31837144      15.83935895
Ni       5.27834930      10.55831955      15.83934109
Ni       5.27784484      12.31785981      14.07880954
Ni       3.51857212      10.55856888      17.59956142
Ni       3.51828587      12.31832385      19.35976280
Ni       5.27827682      10.55822655      19.35974768
Ni       5.27778846      12.31779151      17.59949888
Ni       3.51848252      10.55848035      21.11988786
Ni       3.51818148      12.31819193      22.88019102
Ni       5.27810004      10.55808646      22.88020636
Ni       5.27771656      12.31770884      21.12002581
Ni       3.51835189      10.55837099      24.64041295
Ni       3.51800260      12.31800495      26.40095730
Ni       5.27788741      10.55794520      26.40101166
Ni       5.27744468      12.31745137      24.64078468