        6746
Lattice="  42.8295   0.0000   0.0000   0.0000  42.8295   0.0000   0.0000   0.0000  42.8295 " Time=0.000E+00  Step=0  Energy=-27065.172  Barrier=0.000
Fe     0.00009549    0.00004057    0.00004057       1
Fe     0.00009748    0.00004200    2.85532641       2
Fe     0.00009858    0.00004054    5.71061500       3
Fe     0.00009889    0.00003720    8.56590472       4
Fe     0.00009858    0.00003388   11.42119263       5
Fe     0.00009749    0.00003107   14.27647861       6
Fe     0.00009549    0.00002818   17.13176091       7
Fe     0.00008652    0.00001824   19.98704723       8
Fe     0.00006405    0.00000352   22.84234671       9
Fe     0.00003127   -0.00001167   25.69766577      10
Fe     0.00001057   -0.00001921   28.55298712      11
Fe     0.00001057   -0.00001663   31.40830330      12
Fe     0.00003127   -0.00000434   34.26362637      13
Fe     0.00006405    0.00001440   37.11894844      14
Fe     0.00008652    0.00003080   39.97425122      15
Fe     0.00009748    2.85532641    0.00004200      16
Fe     0.00008962    2.85532350    2.85532350      17
Fe     0.00008535    2.85531833    5.71061111      18
Fe     0.00008423    2.85531573    8.56590171      19
Fe     0.00008535    2.85531649   11.42119184      20
Fe     0.00008962    2.85532033   14.27647804      21
Fe     0.00009748    2.85532266   17.13175834      22
Fe     0.00009728    2.85532125   19.98703741      23
Fe     0.00007576    2.85531351   22.84233429      24
Fe     0.00003776    2.85530253   25.69765873      25
Fe     0.00001300    2.85529616   28.55298695      26
Fe     0.00001300    2.85529696   31.40830862      27
Fe     0.00003776    2.85530478   34.26363756      28
Fe     0.00007576    2.85531684   37.11896327      29
Fe     0.00009729    2.85532512   39.97426164      30
Fe     0.00009858    5.71061500    0.00004054      31
Fe     0.00008535    5.71061111    2.85531833      32
Fe     0.00007690    5.71060806    5.71060806      33
Fe     0.00007484    5.71060682    8.56590171      34
Fe     0.00007690    5.71060990   11.42119488      35
Fe     0.00008536    5.71061427   14.27648321      36
Fe     0.00009858    5.71061875   17.13175979      37
Fe     0.00010381    5.71062108   19.98703312      38
Fe     0.00008342    5.71061865   22.84232734      39
Fe     0.00004205    5.71061315   25.69765407      40
Fe     0.00001464    5.71060922   28.55298561      41
Fe     0.00001464    5.71060842   31.40830996      42
Fe     0.00004205    5.71061090   34.26364222      43
Fe     0.00008342    5.71061532   37.11897022      44
Fe     0.00010381    5.71061723   39.97426593      45
Fe     0.00009889    8.56590472    0.00003720      46
Fe     0.00008423    8.56590171    2.85531573      47
Fe     0.00007484    8.56590171    5.71060682      48
Fe     0.00007101    8.56590472    8.56590472      49
Fe     0.00007485    8.56590837   11.42120081      50
Fe     0.00008423    8.56591264   14.27648929      51
Fe     0.00009890    8.56591710   17.13176428      52
Fe     0.00010593    8.56592093   19.98703500      53
Fe     0.00008606    8.56592351   22.84232679      54
Fe     0.00004355    8.56592442   25.69765244      55
Fe     0.00001521    8.56592351   28.55298330      56
Fe     0.00001521    8.56592093   31.40830712      57
Fe     0.00004355    8.56591710   34.26363969      58
Fe     0.00008606    8.56591264   37.11896835      59
Fe     0.00010593    8.56590837   39.97426345      60
Fe     0.00009858   11.42119263    0.00003388      61
Fe     0.00008535   11.42119184    2.85531649      62
Fe     0.00007690   11.42119488    5.71060990      63
Fe     0.00007485   11.42120081    8.56590837      64
Fe     0.00007691   11.42120547   11.42120547      65
Fe     0.00008537   11.42120894   14.27649459      66
Fe     0.00009859   11.42121230   17.13177047      67
Fe     0.00010381   11.42121669   19.98704152      68
Fe     0.00008342   11.42122357   22.84233196      69
Fe     0.00004205   11.42123063   25.69765407      70
Fe     0.00001464   11.42123300   28.55298099      71
Fe     0.00001464   11.42122935   31.40830156      72
Fe     0.00004205   11.42122015   34.26363155      73
Fe     0.00008342   11.42120788   37.11895884      74
Fe     0.00010381   11.42119813   39.97425535      75
Fe     0.00009749   14.27647861    0.00003107      76
Fe     0.00008962   14.27647804    2.85532033      77
Fe     0.00008536   14.27648321    5.71061427      78
Fe     0.00008423   14.27648929    8.56591264      79
Fe     0.00008537   14.27649459   11.42120894      80
Fe     0.00008964   14.27649654   14.27649654      81
Fe     0.00009750   14.27649829   17.13177458      82
Fe     0.00009730   14.27650285   19.98704966      83
Fe     0.00007576   14.27651244   22.84234085      84
Fe     0.00003776   14.27652401   25.69765873      85
Fe     0.00001300   14.27652978   28.55298039      86
Fe     0.00001300   14.27652714   31.40829637      87
Fe     0.00003776   14.27651616   34.26362131      88
Fe     0.00007576   14.27650003   37.11894478      89
Fe     0.00009729   14.27648597   39.97424453      90
Fe     0.00009549   17.13176091    0.00002818      91
Fe     0.00009748   17.13175834    2.85532266      92
Fe     0.00009858   17.13175979    5.71061875      93
Fe     0.00009890   17.13176428    8.56591710      94
Fe     0.00009859   17.13177047   11.42121230      95
Fe     0.00009750   17.13177458   14.27649829      96
Fe     0.00009551   17.13177660   17.13177660      97
Fe     0.00008653   17.13178415   19.98705757      98
Fe     0.00006405   17.13179702   22.84235190      99
Fe     0.00003127   17.13181159   25.69766577     100
Fe     0.00001057   17.13181985   28.55298192     101
Fe     0.00001057   17.13181911   31.40829295     102
Fe     0.00003127   17.13180921   34.26361068     103
Fe     0.00006405   17.13179123   37.11892876     104
Fe     0.00008652   17.13177353   39.97423155     105
Fe     0.00008652   19.98704723    0.00001824     106
Fe     0.00009728   19.98703741    2.85532125     107
Fe     0.00010381   19.98703312    5.71062108     108
Fe     0.00010593   19.98703500    8.56592093     109
Fe     0.00010381   19.98704152   11.42121669     110
Fe     0.00009730   19.98704966   14.27650285     111
Fe     0.00008653   19.98705757   17.13178415     112
Fe     0.00007211   19.98706710   19.98706710     113
Fe     0.00005013   19.98708360   22.84236370     114
Fe     0.00002368   19.98710080   25.69767398     115
Fe     0.00000774   19.98711008   28.55298470     116
Fe     0.00000774   19.98711068   31.40829069     117
Fe     0.00002368   19.98710167   34.26360102     118
Fe     0.00005013   19.98708286   37.11891219     119
Fe     0.00007210   19.98706192   39.97421639     120
Fe     0.00006405   22.84234671    0.00000352     121
Fe     0.00007576   22.84233429    2.85531351     122
Fe     0.00008342   22.84232734    5.71061865     123
Fe     0.00008606   22.84232679    8.56592351     124
Fe     0.00008342   22.84233196   11.42122357     125
Fe     0.00007576   22.84234085   14.27651244     126
Fe     0.00006405   22.84235190   17.13179702     127
Fe     0.00005013   22.84236370   19.98708360     128
Fe     0.00003399   22.84237744   22.84237744     129
Fe     0.00001623   22.84239327   25.69768202     130
Fe     0.00000502   22.84240255   28.55298756     131
Fe     0.00000502   22.84240314   31.40828903     132
Fe     0.00001623   22.84239463   34.26359224     133
Fe     0.00003399   22.84237800   37.11889521     134
Fe     0.00005013   22.84236173   39.97419564     135
Fe     0.00003127   25.69766577   -0.00001167     136
Fe     0.00003776   25.69765873    2.85530253     137
Fe     0.00004205   25.69765407    5.71061315     138
Fe     0.00004355   25.69765244    8.56592442     139
Fe     0.00004205   25.69765407   11.42123063     140
Fe     0.00003776   25.69765873   14.27652401     141
Fe     0.00003127   25.69766577   17.13181159     142
Fe     0.00002368   25.69767398   19.98710080     143
Fe     0.00001623   25.69768202   22.84239327     144
Fe     0.00000867   25.69769000   25.69769000     145
Fe     0.00000275   25.69769626   28.55298984     146
Fe     0.00000275   25.69769626   31.40828726     147
Fe     0.00000867   25.69768999   34.26358408     148
Fe     0.00001623   25.69768202   37.11887819     149
Fe     0.00002368   25.69767398   39.97417697     150
Fe     0.00001057   28.55298712   -0.00001921     151
Fe     0.00001300   28.55298695    2.85529616     152
Fe     0.00001464   28.55298561    5.71060922     153
Fe     0.00001521   28.55298330    8.56592351     154
Fe     0.00001464   28.55298099   11.42123300     155
Fe     0.00001300   28.55298039   14.27652978     156
Fe     0.00001057   28.55298192   17.13181985     157
Fe     0.00000774   28.55298470   19.98711008     158
Fe     0.00000502   28.55298756   22.84240255     159
Fe     0.00000275   28.55298984   25.69769626     160
Fe     0.00000094   28.55299110   28.55299110     161
Fe     0.00000094   28.55299050   31.40828549     162
Fe     0.00000275   28.55298848   34.26357800     163
Fe     0.00000502   28.55298700   37.11887011     164
Fe     0.00000774   28.55298667   39.97416916     165
Fe     0.00001057   31.40830330   -0.00001663     166
Fe     0.00001300   31.40830862    2.85529696     167
Fe     0.00001464   31.40830996    5.71060842     168
Fe     0.00001521   31.40830712    8.56592093     169
Fe     0.00001464   31.40830156   11.42122935     170
Fe     0.00001300   31.40829637   14.27652714     171
Fe     0.00001057   31.40829295   17.13181911     172
Fe     0.00000774   31.40829069   19.98711068     173
Fe     0.00000502   31.40828903   22.84240314     174
Fe     0.00000275   31.40828726   25.69769626     175
Fe     0.00000094   31.40828549   28.55299050     176
Fe     0.00000094   31.40828489   31.40828489     177
Fe     0.00000275   31.40828638   34.26357874     178
Fe     0.00000503   31.40828976   37.11887275     179
Fe     0.00000774   31.40829588   39.97417282     180
Fe     0.00003127   34.26362637   -0.00000434     181
Fe     0.00003776   34.26363756    2.85530478     182
Fe     0.00004205   34.26364222    5.71061090     183
Fe     0.00004355   34.26363969    8.56591710     184
Fe     0.00004205   34.26363155   11.42122015     185
Fe     0.00003776   34.26362131   14.27651616     186
Fe     0.00003127   34.26361068   17.13180921     187
Fe     0.00002368   34.26360102   19.98710167     188
Fe     0.00001623   34.26359224   22.84239463     189
Fe     0.00000867   34.26358408   25.69768999     190
Fe     0.00000275   34.26357800   28.55298848     191
Fe     0.00000275   34.26357874   31.40828638     192
Fe     0.00000867   34.26358645   34.26358645     193
Fe     0.00001623   34.26359803   37.11888604     194
Fe     0.00002368   34.26361163   39.97418746     195
Fe     0.00006405   37.11894844    0.00001440     196
Fe     0.00007576   37.11896327    2.85531684     197
Fe     0.00008342   37.11897022    5.71061532     198
Fe     0.00008606   37.11896835    8.56591264     199
Fe     0.00008342   37.11895884   11.42120788     200
Fe     0.00007576   37.11894478   14.27650003     201
Fe     0.00006405   37.11892876   17.13179123     202
Fe     0.00005013   37.11891219   19.98708286     203
Fe     0.00003399   37.11889521   22.84237800     204
Fe     0.00001623   37.11887819   25.69768202     205
Fe     0.00000502   37.11887011   28.55298700     206
Fe     0.00000503   37.11887275   31.40828976     207
Fe     0.00001623   37.11888604   34.26359803     208
Fe     0.00003399   37.11890763   37.11890763     209
Fe     0.00005012   37.11892907   39.97421134     210
Fe     0.00008652   39.97425122    0.00003080     211
Fe     0.00009729   39.97426164    2.85532512     212
Fe     0.00010381   39.97426593    5.71061723     213
Fe     0.00010593   39.97426345    8.56590837     214
Fe     0.00010381   39.97425535   11.42119813     215
Fe     0.00009729   39.97424453   14.27648597     216
Fe     0.00008652   39.97423155   17.13177353     217
Fe     0.00007210   39.97421639   19.98706192     218
Fe     0.00005013   39.97419564   22.84236173     219
Fe     0.00002368   39.97417697   25.69767398     220
Fe     0.00000774   39.97416916   28.55298667     221
Fe     0.00000774   39.97417282   31.40829588     222
Fe     0.00002368   39.97418746   34.26361163     223
Fe     0.00005012   39.97421134   37.11892907     224
Fe     0.00007210   39.97423496   39.97423496     225
Fe     2.85558439    0.00015206    0.00015206     226
Fe     2.85556938    0.00014981    2.85538834     227
Fe     2.85556425    0.00013648    5.71063989     228
Fe     2.85557030    0.00012662    8.56590943     229
Fe     2.85557771    0.00012224   11.42117582     230
Fe     2.85559030    0.00012754   14.27642240     231
Fe     2.85560699    0.00012783   17.13165101     232
Fe     2.85558527    0.00008821   19.98691592     233
Fe     2.85550577    0.00003031   22.84224851     234
Fe     2.85540866   -0.00001767   25.69762436     235
Fe     2.85536236   -0.00003611   28.55297515     236
Fe     2.85535807   -0.00003145   31.40830766     237
Fe     2.85539638   -0.00000437   34.26366149     238
Fe     2.85548739    0.00005022   37.11904247     239
Fe     2.85556372    0.00011150   39.97438052     240
Fe     2.85556938    2.85538834    0.00014981     241
Fe     2.85551470    2.85537450    2.85537450     242
Fe     2.85548364    2.85534566    5.71062622     243
Fe     2.85547798    2.85533056    8.56590316     244
Fe     2.85548777    2.85534212   11.42117897     245
Fe     2.85552154    2.85536870   14.27642872     246
Fe     2.85557719    2.85538177   17.13165106     247
Fe     2.85558352    2.85537075   19.98689472     248
Fe     2.85550343    2.85534113   22.84222083     249
Fe     2.85539258    2.85530939   25.69761037     250
Fe     2.85533930    2.85529469   28.55297504     251
Fe     2.85533766    2.85529604   31.40831805     252
Fe     2.85538795    2.85531320   34.26368393     253
Fe     2.85549656    2.85534682   37.11907558     254
Fe     2.85557557    2.85537736   39.97440404     255
Fe     2.85556425    5.71063989    0.00013648     256
Fe     2.85548364    5.71062622    2.85534566     257
Fe     2.85542691    5.71060818    5.71060818     258
Fe     2.85541225    5.71059755    8.56590316     259
Fe     2.85543104    5.71061172   11.42119700     260
Fe     2.85549047    5.71063202   14.27645756     261
Fe     2.85557206    5.71064646   17.13166439     262
Fe     2.85559863    5.71065150   19.98688473     263
Fe     2.85552045    5.71064125   22.84220448     264
Fe     2.85540064    5.71062541   25.69760120     265
Fe     2.85534219    5.71061670   28.55297257     266
Fe     2.85534055    5.71061536   31.40832053     267
Fe     2.85539601    5.71062159   34.26369310     268
Fe     2.85551358    5.71063558   37.11909193     269
Fe     2.85559068    5.71064490   39.97441403     270
Fe     2.85557030    8.56590943    0.00012662     271
Fe     2.85547798    8.56590316    2.85533056     272
Fe     2.85541225    8.56590316    5.71059755     273
Fe     2.85539360    8.56590943    8.56590943     274
Fe     2.85542572    8.56591741   11.42121817     275
Fe     2.85549890    8.56592545   14.27648017     276
Fe     2.85559289    8.56593366   17.13167643     277
Fe     2.85562870    8.56594068   19.98688735     278
Fe     2.85555377    8.56594533   22.84220246     279
Fe     2.85543174    8.56594697   25.69759805     280
Fe     2.85537061    8.56594535   28.55296807     281
Fe     2.85536633    8.56594069   31.40831474     282
Fe     2.85541947    8.56593365   34.26368781     283
Fe     2.85553541    8.56592543   37.11908852     284
Fe     2.85560717    8.56591740   39.97440909     285
Fe     2.85557771   11.42117582    0.00012224     286
Fe     2.85548777   11.42117897    2.85534212     287
Fe     2.85543104   11.42119700    5.71061172     288
Fe     2.85542572   11.42121817    8.56591741     289
Fe     2.85546001   11.42122213   11.42122213     290
Fe     2.85553290   11.42121844   14.27648405     291
Fe     2.85562558   11.42121856   17.13168721     292
Fe     2.85566140   11.42122607   19.98690207     293
Fe     2.85558923   11.42124460   22.84221393     294
Fe     2.85547148   11.42126331   25.69760121     295
Fe     2.85541098   11.42126917   28.55296314     296
Fe     2.85540332   11.42126222   31.40830318     297
Fe     2.85544948   11.42124340   34.26367027     298
Fe     2.85555595   11.42121484   37.11906545     299
Fe     2.85561962   11.42118892   39.97438892     300
Fe     2.85559030   14.27642240    0.00012754     301
Fe     2.85552154   14.27642872    2.85536870     302
Fe     2.85549047   14.27645756    5.71063202     303
Fe     2.85549890   14.27648017    8.56592545     304
Fe     2.85553290   14.27648405   11.42121844     305
Fe     2.85558596   14.27647231   14.27647231     306
Fe     2.85565321   14.27646650   17.13168602     307
Fe     2.85566784   14.27648200   19.98691900     308
Fe     2.85559260   14.27651457   22.84223350     309
Fe     2.85548329   14.27654727   25.69761038     310
Fe     2.85542846   14.27656101   28.55296239     311
Fe     2.85542195   14.27655671   31.40829377     312
Fe     2.85546389   14.27653504   34.26364897     313
Fe     2.85556090   14.27649417   37.11903200     314
Fe     2.85562066   14.27644880   39.97436460     315
Fe     2.85560699   17.13165101    0.00012783     316
Fe     2.85557719   17.13165106    2.85538177     317
Fe     2.85557206   17.13166439    5.71064646     318
Fe     2.85559289   17.13167643    8.56593366     319
Fe     2.85562558   17.13168721   11.42121856     320
Fe     2.85565321   17.13168602   14.27646650     321
Fe     2.85567127   17.13168361   17.13168361     322
Fe     2.85564502   17.13171461   19.98693379     323
Fe     2.85556229   17.13176639   22.84225636     324
Fe     2.85546399   17.13181250   25.69762436     325
Fe     2.85541887   17.13183290   28.55296730     326
Fe     2.85541778   17.13183436   31.40828978     327
Fe     2.85546059   17.13181587   34.26362888     328
Fe     2.85555023   17.13176332   37.11899837     329
Fe     2.85561156   17.13169796   39.97433780     330
Fe     2.85558527   19.98691592    0.00008821     331
Fe     2.85558352   19.98689472    2.85537075     332
Fe     2.85559863   19.98688473    5.71065150     333
Fe     2.85562870   19.98688735    8.56594068     334
Fe     2.85566140   19.98690207   11.42122607     335
Fe     2.85566784   19.98691900   14.27648200     336
Fe     2.85564502   19.98693379   17.13171461     337
Fe     2.85559769   19.98696468   19.98696468     338
Fe     2.85551716   19.98702626   22.84228362     339
Fe     2.85543512   19.98708365   25.69764088     340
Fe     2.85540056   19.98710907   28.55297487     341
Fe     2.85540483   19.98711424   31.40828902     342
Fe     2.85544838   19.98709432   34.26361394     343
Fe     2.85552909   19.98703487   37.11896148     344
Fe     2.85558381   19.98696120   39.97429264     345
Fe     2.85550577   22.84224851    0.00003031     346
Fe     2.85550343   22.84222083    2.85534113     347
Fe     2.85552045   22.84220448    5.71064125     348
Fe     2.85555377   22.84220246    8.56594533     349
Fe     2.85558923   22.84221393   11.42124460     350
Fe     2.85559260   22.84223350   14.27651457     351
Fe     2.85556229   22.84225636   17.13176639     352
Fe     2.85551716   22.84228362   19.98702626     353
Fe     2.85546188   22.84232595   22.84232595     354
Fe     2.85540951   22.84237295   25.69765944     355
Fe     2.85538709   22.84239784   28.55298245     356
Fe     2.85539555   22.84240088   31.40828965     357
Fe     2.85543325   22.84238113   34.26359683     358
Fe     2.85548879   22.84233328   37.11891181     359
Fe     2.85551524   22.84228469   39.97421896     360
Fe     2.85540866   25.69762436   -0.00001767     361
Fe     2.85539258   25.69761037    2.85530939     362
Fe     2.85540064   25.69760120    5.71062541     363
Fe     2.85543174   25.69759805    8.56594697     364
Fe     2.85547148   25.69760121   11.42126331     365
Fe     2.85548329   25.69761038   14.27654727     366
Fe     2.85546399   25.69762436   17.13181250     367
Fe     2.85543512   25.69764088   19.98708365     368
Fe     2.85540951   25.69765944   22.84237295     369
Fe     2.85538747   25.69767981   25.69767981     370
Fe     2.85538019   25.69769322   28.55298888     371
Fe     2.85538958   25.69769322   31.40828705     372
Fe     2.85541535   25.69767981   34.26357679     373
Fe     2.85544061   25.69765944   37.11886136     374
Fe     2.85543697   25.69764088   39.97415736     375
Fe     2.85536236   28.55297515   -0.00003611     376
Fe     2.85533930   28.55297504    2.85529469     377
Fe     2.85534219   28.55297257    5.71061670     378
Fe     2.85537061   28.55296807    8.56594535     379
Fe     2.85541098   28.55296314   11.42126917     380
Fe     2.85542846   28.55296239   14.27656101     381
Fe     2.85541887   28.55296730   17.13183290     382
Fe     2.85540056   28.55297487   19.98710907     383
Fe     2.85538709   28.55298245   22.84239784     384
Fe     2.85538019   28.55298888   25.69769322     385
Fe     2.85537904   28.55299004   28.55299004     386
Fe     2.85538750   28.55298700   31.40828205     387
Fe     2.85540394   28.55298070   34.26356305     388
Fe     2.85541401   28.55297512   37.11883992     389
Fe     2.85539865   28.55297381   39.97413614     390
Fe     2.85535807   31.40830766   -0.00003145     391
Fe     2.85533766   31.40831805    2.85529604     392
Fe     2.85534055   31.40832053    5.71061536     393
Fe     2.85536633   31.40831474    8.56594069     394
Fe     2.85540332   31.40830318   11.42126222     395
Fe     2.85542195   31.40829377   14.27655671     396
Fe     2.85541778   31.40828978   17.13183436     397
Fe     2.85540483   31.40828902   19.98711424     398
Fe     2.85539555   31.40828965   22.84240088     399
Fe     2.85538958   31.40828705   25.69769322     400
Fe     2.85538750   31.40828205   28.55298700     401
Fe     2.85539177   31.40827688   31.40827688     402
Fe     2.85540284   31.40827638   34.26356160     403
Fe     2.85540750   31.40828103   37.11884422     404
Fe     2.85539099   31.40829251   39.97414309     405
Fe     2.85539638   34.26366149   -0.00000437     406
Fe     2.85538795   34.26368393    2.85531320     407
Fe     2.85539601   34.26369310    5.71062159     408
Fe     2.85541947   34.26368781    8.56593365     409
Fe     2.85544948   34.26367027   11.42124340     410
Fe     2.85546389   34.26364897   14.27653504     411
Fe     2.85546059   34.26362888   17.13181587     412
Fe     2.85544838   34.26361394   19.98709432     413
Fe     2.85543325   34.26359683   22.84238113     414
Fe     2.85541535   34.26357679   25.69767981     415
Fe     2.85540394   34.26356305   28.55298070     416
Fe     2.85540284   34.26356160   31.40827638     417
Fe     2.85541195   34.26357342   34.26357342     418
Fe     2.85542120   34.26359989   37.11887359     419
Fe     2.85541496   34.26363059   39.97417727     420
Fe     2.85548739   37.11904247    0.00005022     421
Fe     2.85549656   37.11907558    2.85534682     422
Fe     2.85551358   37.11909193    5.71063558     423
Fe     2.85553541   37.11908852    8.56592543     424
Fe     2.85555595   37.11906545   11.42121484     425
Fe     2.85556090   37.11903200   14.27649417     426
Fe     2.85555023   37.11899837   17.13176332     427
Fe     2.85552909   37.11896148   19.98703487     428
Fe     2.85548879   37.11891181   22.84233328     429
Fe     2.85544061   37.11886136   25.69765944     430
Fe     2.85541401   37.11883992   28.55297512     431
Fe     2.85540750   37.11884422   31.40828103     432
Fe     2.85542120   37.11887359   34.26359989     433
Fe     2.85545709   37.11893221   37.11893221     434
Fe     2.85548193   37.11899467   39.97424873     435
Fe     2.85556372   39.97438052    0.00011150     436
Fe     2.85557557   39.97440404    2.85537736     437
Fe     2.85559068   39.97441403    5.71064490     438
Fe     2.85560717   39.97440909    8.56591740     439
Fe     2.85561962   39.97438892   11.42118892     440
Fe     2.85562066   39.97436460   14.27644880     441
Fe     2.85561156   39.97433780   17.13169796     442
Fe     2.85558381   39.97429264   19.98696120     443
Fe     2.85551524   39.97421896   22.84228469     444
Fe     2.85543697   39.97415736   25.69764088     445
Fe     2.85539865   39.97413614   28.55297381     446
Fe     2.85539099   39.97414309   31.40829251     447
Fe     2.85541496   39.97417727   34.26363059     448
Fe     2.85548193   39.97424873   37.11899467     449
Fe     2.85554203   39.97432980   39.97432980     450
Fe     5.71127589    0.00048595    0.00048595     451
Fe     5.71126349    0.00052283    2.85560793     452
Fe     5.71124514    0.00050009    5.71073144     453
Fe     5.71125634    0.00047804    8.56591962     454
Fe     5.71127446    0.00046632   11.42110557     455
Fe     5.71130904    0.00047050   14.27622017     456
Fe     5.71132453    0.00043050   17.13132348     457
Fe     5.71116314    0.00023461   19.98665708     458
Fe     5.71093092    0.00005049   22.84213069     459
Fe     5.71076638   -0.00005422   25.69758570     460
Fe     5.71070851   -0.00008377   28.55295970     461
Fe     5.71070046   -0.00007460   31.40830398     462
Fe     5.71074329   -0.00002790   34.26368359     463
Fe     5.71089640    0.00009017   37.11914720     464
Fe     5.71112044    0.00028368   39.97463293     465
Fe     5.71126349    2.85560793    0.00052283     466
Fe     5.71115155    2.85563043    2.85563043     467
Fe     5.71103942    2.85556304    5.71072981     468
Fe     5.71100599    2.85551699    8.56590621     469
Fe     5.71104747    2.85555545   11.42108115     470
Fe     5.71116462    2.85561831   14.27617723     471
Fe     5.71127844    2.85559453   17.13127993     472
Fe     5.71115122    2.85548044   19.98660448     473
Fe     5.71089648    2.85537087   22.84209335     474
Fe     5.71071703    2.85530800   25.69756982     475
Fe     5.71065488    2.85528634   28.55296340     476
Fe     5.71065199    2.85528882   31.40832369     477
Fe     5.71070878    2.85531509   34.26371954     478
Fe     5.71088415    2.85538154   37.11919992     479
Fe     5.71113676    2.85549317   39.97469323     480
Fe     5.71124514    5.71073144    0.00050009     481
Fe     5.71103942    5.71072981    2.85556304     482
Fe     5.71078461    5.71067240    5.71067240     483
Fe     5.71069996    5.71063754    8.56590621     484
Fe     5.71079266    5.71067998   11.42113856     485
Fe     5.71105248    5.71074192   14.27624461     486
Fe     5.71126008    5.71074482   17.13130268     487
Fe     5.71117239    5.71071379   19.98658588     488
Fe     5.71091256    5.71067217   22.84207347     489
Fe     5.71072391    5.71064348   25.69755983     490
Fe     5.71065756    5.71063084   28.55296057     491
Fe     5.71065468    5.71062837   31.40832651     492
Fe     5.71071566    5.71063640   34.26372954     493
Fe     5.71090024    5.71066152   37.11921981     494
Fe     5.71115794    5.71070108   39.97471185     495
Fe     5.71125634    8.56591962    0.00047804     496
Fe     5.71100599    8.56590621    2.85551699     497
Fe     5.71069996    8.56590621    5.71063754     498
Fe     5.71058000    8.56591964    8.56591964     499
Fe     5.71072931    8.56594000   11.42119947     500
Fe     5.71105156    8.56595855   14.27631108     501
Fe     5.71130496    8.56597503   17.13133139     502
Fe     5.71123390    8.56598899   19.98659278     503
Fe     5.71097661    8.56599817   22.84207460     504
Fe     5.71078586    8.56600135   25.69755651     505
Fe     5.71071634    8.56599820   28.55295139     506
Fe     5.71070829    8.56598904   31.40831230     507
Fe     5.71076278    8.56597505   34.26371280     508
Fe     5.71094212    8.56595853   37.11920333     509
Fe     5.71119125    8.56593997   39.97469728     510
Fe     5.71127446   11.42110557    0.00046632     511
Fe     5.71104747   11.42108115    2.85555545     512
Fe     5.71079266   11.42113856    5.71067998     513
Fe     5.71072931   11.42119947    8.56594000     514
Fe     5.71086754   11.42121048   11.42121048     515
Fe     5.71116917   11.42119841   14.27632742     516
Fe     5.71140350   11.42123028   17.13136922     517
Fe     5.71133645   11.42128905   19.98663240     518
Fe     5.71109077   11.42134953   22.84209808     519
Fe     5.71090706   11.42138480   25.69755985     520
Fe     5.71083582   11.42139092   28.55293602     521
Fe     5.71081881   11.42137457   31.40828008     522
Fe     5.71085906   11.42133876   34.26366303     523
Fe     5.71101681   11.42127880   37.11913699     524
Fe     5.71123270   11.42118933   39.97463996     525
Fe     5.71130904   14.27622017    0.00047050     526
Fe     5.71116462   14.27617723    2.85561831     527
Fe     5.71105248   14.27624461    5.71074192     528
Fe     5.71105156   14.27631108    8.56595855     529
Fe     5.71116917   14.27632742   11.42119841     530
Fe     5.71135757   14.27632676   14.27632676     531
Fe     5.71150568   14.27638062   17.13139971     532
Fe     5.71139702   14.27650552   19.98667929     533
Fe     5.71115451   14.27662264   22.84212954     534
Fe     5.71097940   14.27668869   25.69756984     535
Fe     5.71091296   14.27670719   28.55292726     536
Fe     5.71089785   14.27669721   31.40824898     537
Fe     5.71093597   14.27666012   34.26359980     538
Fe     5.71107695   14.27656353   37.11905037     539
Fe     5.71125831   14.27638970   39.97457598     540
Fe     5.71132453   17.13132348    0.00043050     541
Fe     5.71127844   17.13127993    2.85559453     542
Fe     5.71126008   17.13130268    5.71074482     543
Fe     5.71130496   17.13133139    8.56597503     544
Fe     5.71140350   17.13136922   11.42123028     545
Fe     5.71150568   17.13139971   14.27638062     546
Fe     5.71153517   17.13145571   17.13145571     547
Fe     5.71135240   17.13162913   19.98672567     548
Fe     5.71110700   17.13179077   22.84215556     549
Fe     5.71093980   17.13188879   25.69758570     550
Fe     5.71088457   17.13192510   28.55293484     551
Fe     5.71088971   17.13193843   31.40823543     552